
 Entering Gaussian System  

                          Input orientation:   
 ---------------------------------------------------------------------
 Center     Atomic     Atomic              Coordinates (Angstroms)
 Number     Number      Type              X           Y           Z 
 ---------------------------------------------------------------------
    1          6             0        0.000000    0.401721   -0.096031
    2          7             0        0.000000   -0.162504    1.145371
    3          1             0        0.000000    1.541283   -0.009698
    4          1             0        0.000000    0.374796    1.979555
    5          8             0        0.000000   -0.207339   -1.131411
    6          1             0        0.000000   -1.153754    1.217289
 ---------------------------------------------------------------------

 Entering Gaussian System  

                          Input orientation:   
 ---------------------------------------------------------------------
 Center     Atomic     Atomic              Coordinates (Angstroms)
 Number     Number      Type              X           Y           Z 
 ---------------------------------------------------------------------
    1          6             0       -0.005085    0.418594   -0.094383
    2          7             0        0.005356   -0.167637    1.139194
    3          1             0       -0.008887    1.547905   -0.013346
    4          1             0        0.005499    0.365362    1.973281
    5          8             0        0.002395   -0.214916   -1.125939
    6          1             0       -0.048518   -1.160411    1.206563
 ---------------------------------------------------------------------

 Entering Gaussian System  

                          Input orientation:   
 ---------------------------------------------------------------------
 Center     Atomic     Atomic              Coordinates (Angstroms)
 Number     Number      Type              X           Y           Z 
 ---------------------------------------------------------------------
    1          6             0       -0.008034    0.430695   -0.085914
    2          7             0        0.015611   -0.170959    1.135643
    3          1             0       -0.034280    1.572304   -0.015915
    4          1             0       -0.019237    0.366092    1.962733
    5          8             0        0.003684   -0.221890   -1.128632
    6          1             0       -0.126440   -1.172870    1.210838
 ---------------------------------------------------------------------

 Entering Gaussian System  

                          Input orientation:   
 ---------------------------------------------------------------------
 Center     Atomic     Atomic              Coordinates (Angstroms)
 Number     Number      Type              X           Y           Z 
 ---------------------------------------------------------------------
    1          6             0       -0.009948    0.443596   -0.070648
    2          7             0        0.023857   -0.174930    1.133112
    3          1             0       -0.047342    1.597071   -0.035822
    4          1             0       -0.051007    0.372839    1.957053
    5          8             0        0.004043   -0.229629   -1.136648
    6          1             0       -0.179291   -1.180096    1.216924
 ---------------------------------------------------------------------

 Entering Gaussian System  

                          Input orientation:   
 ---------------------------------------------------------------------
 Center     Atomic     Atomic              Coordinates (Angstroms)
 Number     Number      Type              X           Y           Z 
 ---------------------------------------------------------------------
    1          6             0       -0.002847    0.458231   -0.052370
    2          7             0        0.020429   -0.179896    1.133319
    3          1             0       -0.068051    1.617429   -0.066431
    4          1             0       -0.048514    0.378877    1.949602
    5          8             0        0.001887   -0.238209   -1.148120
    6          1             0       -0.163796   -1.175678    1.216388
 ---------------------------------------------------------------------

 Entering Gaussian System  

                          Input orientation:   
 ---------------------------------------------------------------------
 Center     Atomic     Atomic              Coordinates (Angstroms)
 Number     Number      Type              X           Y           Z 
 ---------------------------------------------------------------------
    1          6             0        0.001343    0.474084   -0.035016
    2          7             0        0.018100   -0.184033    1.135732
    3          1             0       -0.075992    1.649138   -0.094369
    4          1             0       -0.049934    0.374876    1.946485
    5          8             0        0.000423   -0.248025   -1.161086
    6          1             0       -0.148734   -1.178973    1.212918
 ---------------------------------------------------------------------

 Entering Gaussian System  

                          Input orientation:   
 ---------------------------------------------------------------------
 Center     Atomic     Atomic              Coordinates (Angstroms)
 Number     Number      Type              X           Y           Z 
 ---------------------------------------------------------------------
    1          6             0        0.009500    0.491368   -0.018284
    2          7             0        0.015972   -0.189014    1.136160
    3          1             0       -0.088663    1.680702   -0.120684
    4          1             0       -0.073643    0.378230    1.955966
    5          8             0       -0.003014   -0.258318   -1.172903
    6          1             0       -0.125496   -1.187245    1.212002
 ---------------------------------------------------------------------

 Entering Gaussian System  

                          Input orientation:   
 ---------------------------------------------------------------------
 Center     Atomic     Atomic              Coordinates (Angstroms)
 Number     Number      Type              X           Y           Z 
 ---------------------------------------------------------------------
    1          6             0        0.010814    0.508676   -0.004646
    2          7             0        0.017515   -0.195382    1.137235
    3          1             0       -0.074630    1.704507   -0.137973
    4          1             0       -0.110548    0.388771    1.963844
    5          8             0       -0.004826   -0.267928   -1.183583
    6          1             0       -0.111095   -1.186798    1.213470
 ---------------------------------------------------------------------

 Entering Gaussian System  

                          Input orientation:   
 ---------------------------------------------------------------------
 Center     Atomic     Atomic              Coordinates (Angstroms)
 Number     Number      Type              X           Y           Z 
 ---------------------------------------------------------------------
    1          6             0        0.014704    0.523903    0.006138
    2          7             0        0.016807   -0.200652    1.138800
    3          1             0       -0.077504    1.725778   -0.139263
    4          1             0       -0.127898    0.398508    1.964583
    5          8             0       -0.006701   -0.276847   -1.192789
    6          1             0       -0.097669   -1.184454    1.209901
 ---------------------------------------------------------------------

 Entering Gaussian System  

                          Input orientation:   
 ---------------------------------------------------------------------
 Center     Atomic     Atomic              Coordinates (Angstroms)
 Number     Number      Type              X           Y           Z 
 ---------------------------------------------------------------------
    1          6             0        0.020584    0.537481    0.013911
    2          7             0        0.018707   -0.204035    1.142289
    3          1             0       -0.087507    1.741603   -0.129037
    4          1             0       -0.169035    0.399149    1.954768
    5          8             0       -0.009736   -0.285090   -1.201138
    6          1             0       -0.094998   -1.184850    1.200891
 ---------------------------------------------------------------------

 Entering Gaussian System  

                          Input orientation:   
 ---------------------------------------------------------------------
 Center     Atomic     Atomic              Coordinates (Angstroms)
 Number     Number      Type              X           Y           Z 
 ---------------------------------------------------------------------
    1          6             0        0.027203    0.552023    0.017151
    2          7             0        0.020420   -0.206770    1.147368
    3          1             0       -0.095855    1.756287   -0.118486
    4          1             0       -0.215729    0.383023    1.934378
    5          8             0       -0.013244   -0.293200   -1.206468
    6          1             0       -0.087126   -1.189964    1.186148
 ---------------------------------------------------------------------

 Entering Gaussian System  

                          Input orientation:   
 ---------------------------------------------------------------------
 Center     Atomic     Atomic              Coordinates (Angstroms)
 Number     Number      Type              X           Y           Z 
 ---------------------------------------------------------------------
    1          6             0        0.035955    0.566140    0.017897
    2          7             0        0.021962   -0.208562    1.153831
    3          1             0       -0.112276    1.769322   -0.105529
    4          1             0       -0.265712    0.355909    1.909157
    5          8             0       -0.017445   -0.300923   -1.210931
    6          1             0       -0.079940   -1.196599    1.170575
 ---------------------------------------------------------------------

 Entering Gaussian System  

                          Input orientation:   
 ---------------------------------------------------------------------
 Center     Atomic     Atomic              Coordinates (Angstroms)
 Number     Number      Type              X           Y           Z 
 ---------------------------------------------------------------------
    1          6             0        0.045807    0.579222    0.017211
    2          7             0        0.023704   -0.209704    1.160018
    3          1             0       -0.133783    1.776073   -0.092222
    4          1             0       -0.318399    0.326293    1.894331
    5          8             0       -0.022001   -0.307976   -1.214737
    6          1             0       -0.075234   -1.201786    1.154705
 ---------------------------------------------------------------------

 Entering Gaussian System  

                          Input orientation:   
 ---------------------------------------------------------------------
 Center     Atomic     Atomic              Coordinates (Angstroms)
 Number     Number      Type              X           Y           Z 
 ---------------------------------------------------------------------
    1          6             0        0.055824    0.591466    0.016650
    2          7             0        0.025140   -0.209237    1.164605
    3          1             0       -0.157308    1.766302   -0.079319
    4          1             0       -0.367531    0.294932    1.899114
    5          8             0       -0.026480   -0.314508   -1.218419
    6          1             0       -0.071007   -1.209351    1.138416
 ---------------------------------------------------------------------

 Entering Gaussian System  

                          Input orientation:   
 ---------------------------------------------------------------------
 Center     Atomic     Atomic              Coordinates (Angstroms)
 Number     Number      Type              X           Y           Z 
 ---------------------------------------------------------------------
    1          6             0        0.066565    0.602380    0.016917
    2          7             0        0.026086   -0.207051    1.167239
    3          1             0       -0.184013    1.741527   -0.064611
    4          1             0       -0.414094    0.260910    1.925240
    5          8             0       -0.031091   -0.320665   -1.222396
    6          1             0       -0.065854   -1.213226    1.120945
 ---------------------------------------------------------------------

 Entering Gaussian System  

                          Input orientation:   
 ---------------------------------------------------------------------
 Center     Atomic     Atomic              Coordinates (Angstroms)
 Number     Number      Type              X           Y           Z 
 ---------------------------------------------------------------------
    1          6             0        0.077303    0.612434    0.018006
    2          7             0        0.026966   -0.203604    1.168729
    3          1             0       -0.210970    1.704191   -0.047147
    4          1             0       -0.459852    0.221765    1.959662
    5          8             0       -0.035675   -0.326673   -1.226470
    6          1             0       -0.060737   -1.209074    1.100055
 ---------------------------------------------------------------------

 Entering Gaussian System  

                          Input orientation:   
 ---------------------------------------------------------------------
 Center     Atomic     Atomic              Coordinates (Angstroms)
 Number     Number      Type              X           Y           Z 
 ---------------------------------------------------------------------
    1          6             0        0.088282    0.620857    0.019837
    2          7             0        0.027983   -0.199353    1.169847
    3          1             0       -0.240296    1.664017   -0.030744
    4          1             0       -0.505380    0.176170    1.987776
    5          8             0       -0.040281   -0.332123   -1.230120
    6          1             0       -0.057914   -1.196220    1.076146
 ---------------------------------------------------------------------

 Entering Gaussian System  

                          Input orientation:   
 ---------------------------------------------------------------------
 Center     Atomic     Atomic              Coordinates (Angstroms)
 Number     Number      Type              X           Y           Z 
 ---------------------------------------------------------------------
    1          6             0        0.099406    0.626525    0.022070
    2          7             0        0.028875   -0.194175    1.170639
    3          1             0       -0.272508    1.632712   -0.016942
    4          1             0       -0.547498    0.125069    2.005712
    5          8             0       -0.044779   -0.336714   -1.232792
    6          1             0       -0.057306   -1.180399    1.049197
 ---------------------------------------------------------------------

 Entering Gaussian System  

                          Input orientation:   
 ---------------------------------------------------------------------
 Center     Atomic     Atomic              Coordinates (Angstroms)
 Number     Number      Type              X           Y           Z 
 ---------------------------------------------------------------------
    1          6             0        0.110677    0.628314    0.023508
    2          7             0        0.029108   -0.188175    1.171012
    3          1             0       -0.309265    1.617557   -0.009315
    4          1             0       -0.580323    0.073036    2.018069
    5          8             0       -0.048981   -0.339838   -1.233446
    6          1             0       -0.058699   -1.168295    1.017281
 ---------------------------------------------------------------------

 Entering Gaussian System  

                          Input orientation:   
 ---------------------------------------------------------------------
 Center     Atomic     Atomic              Coordinates (Angstroms)
 Number     Number      Type              X           Y           Z 
 ---------------------------------------------------------------------
    1          6             0        0.121955    0.627397    0.025268
    2          7             0        0.027861   -0.181283    1.171742
    3          1             0       -0.349069    1.611792   -0.001727
    4          1             0       -0.598718    0.020916    2.014677
    5          8             0       -0.052750   -0.342112   -1.233334
    6          1             0       -0.057803   -1.159138    0.980211
 ---------------------------------------------------------------------

 Entering Gaussian System  

                          Input orientation:   
 ---------------------------------------------------------------------
 Center     Atomic     Atomic              Coordinates (Angstroms)
 Number     Number      Type              X           Y           Z 
 ---------------------------------------------------------------------
    1          6             0        0.134346    0.625163    0.027009
    2          7             0        0.024385   -0.174081    1.173633
    3          1             0       -0.393828    1.610126    0.008398
    4          1             0       -0.602307   -0.029113    1.991528
    5          8             0       -0.056460   -0.343870   -1.232866
    6          1             0       -0.049916   -1.152983    0.938801
 ---------------------------------------------------------------------

 Entering Gaussian System  

                          Input orientation:   
 ---------------------------------------------------------------------
 Center     Atomic     Atomic              Coordinates (Angstroms)
 Number     Number      Type              X           Y           Z 
 ---------------------------------------------------------------------
    1          6             0        0.148357    0.621721    0.028595
    2          7             0        0.018558   -0.167076    1.176469
    3          1             0       -0.445261    1.607533    0.020004
    4          1             0       -0.591527   -0.070919    1.959133
    5          8             0       -0.060271   -0.344932   -1.232361
    6          1             0       -0.034670   -1.148030    0.893261
 ---------------------------------------------------------------------

 Entering Gaussian System  

                          Input orientation:   
 ---------------------------------------------------------------------
 Center     Atomic     Atomic              Coordinates (Angstroms)
 Number     Number      Type              X           Y           Z 
 ---------------------------------------------------------------------
    1          6             0        0.164470    0.617903    0.028908
    2          7             0        0.010494   -0.161299    1.179026
    3          1             0       -0.502407    1.597760    0.038693
    4          1             0       -0.571578   -0.094095    1.940616
    5          8             0       -0.064529   -0.345615   -1.231649
    6          1             0       -0.009710   -1.139030    0.842545
 ---------------------------------------------------------------------

 Entering Gaussian System  

                          Input orientation:   
 ---------------------------------------------------------------------
 Center     Atomic     Atomic              Coordinates (Angstroms)
 Number     Number      Type              X           Y           Z 
 ---------------------------------------------------------------------
    1          6             0        0.180807    0.615856    0.029390
    2          7             0        0.001178   -0.158567    1.178767
    3          1             0       -0.558193    1.570477    0.067892
    4          1             0       -0.545611   -0.080903    1.956400
    5          8             0       -0.068769   -0.346482   -1.231849
    6          1             0        0.022352   -1.124733    0.798605
 ---------------------------------------------------------------------

 Entering Gaussian System  

                          Input orientation:   
 ---------------------------------------------------------------------
 Center     Atomic     Atomic              Coordinates (Angstroms)
 Number     Number      Type              X           Y           Z 
 ---------------------------------------------------------------------
    1          6             0        0.194038    0.618677    0.032057
    2          7             0       -0.008713   -0.160343    1.174619
    3          1             0       -0.600869    1.512684    0.106924
    4          1             0       -0.510445   -0.020781    2.007531
    5          8             0       -0.071931   -0.348112   -1.234545
    6          1             0        0.060052   -1.110119    0.777111
 ---------------------------------------------------------------------

 Entering Gaussian System  

                          Input orientation:   
 ---------------------------------------------------------------------
 Center     Atomic     Atomic              Coordinates (Angstroms)
 Number     Number      Type              X           Y           Z 
 ---------------------------------------------------------------------
    1          6             0        0.203948    0.626386    0.036096
    2          7             0       -0.018724   -0.165641    1.168612
    3          1             0       -0.629388    1.437007    0.148229
    4          1             0       -0.469230    0.063360    2.068321
    5          8             0       -0.074037   -0.350551   -1.238793
    6          1             0        0.102056   -1.098128    0.777792
 ---------------------------------------------------------------------

 Entering Gaussian System  

                          Input orientation:   
 ---------------------------------------------------------------------
 Center     Atomic     Atomic              Coordinates (Angstroms)
 Number     Number      Type              X           Y           Z 
 ---------------------------------------------------------------------
    1          6             0        0.211724    0.634822    0.042025
    2          7             0       -0.027276   -0.171103    1.162093
    3          1             0       -0.649563    1.374533    0.171598
    4          1             0       -0.434442    0.123877    2.097978
    5          8             0       -0.075694   -0.352915   -1.241726
    6          1             0        0.140124   -1.083277    0.791263
 ---------------------------------------------------------------------

 Entering Gaussian System  

                          Input orientation:   
 ---------------------------------------------------------------------
 Center     Atomic     Atomic              Coordinates (Angstroms)
 Number     Number      Type              X           Y           Z 
 ---------------------------------------------------------------------
    1          6             0        0.217857    0.643823    0.049551
    2          7             0       -0.035373   -0.176579    1.155987
    3          1             0       -0.666824    1.319857    0.178767
    4          1             0       -0.395510    0.169093    2.099984
    5          8             0       -0.076684   -0.354773   -1.244547
    6          1             0        0.173816   -1.075503    0.822031
 ---------------------------------------------------------------------

 Entering Gaussian System  

                          Input orientation:   
 ---------------------------------------------------------------------
 Center     Atomic     Atomic              Coordinates (Angstroms)
 Number     Number      Type              X           Y           Z 
 ---------------------------------------------------------------------
    1          6             0        0.224424    0.653258    0.057138
    2          7             0       -0.043371   -0.182355    1.151251
    3          1             0       -0.689519    1.272063    0.168849
    4          1             0       -0.353681    0.201604    2.077209
    5          8             0       -0.077620   -0.355704   -1.247051
    6          1             0        0.202642   -1.077627    0.869867
 ---------------------------------------------------------------------

 Entering Gaussian System  

                          Input orientation:   
 ---------------------------------------------------------------------
 Center     Atomic     Atomic              Coordinates (Angstroms)
 Number     Number      Type              X           Y           Z 
 ---------------------------------------------------------------------
    1          6             0        0.231899    0.662469    0.063415
    2          7             0       -0.050709   -0.188551    1.147592
    3          1             0       -0.720097    1.238142    0.146806
    4          1             0       -0.313256    0.224326    2.040026
    5          8             0       -0.078725   -0.355819   -1.248677
    6          1             0        0.223441   -1.088284    0.930948
 ---------------------------------------------------------------------

 Entering Gaussian System  

                          Input orientation:   
 ---------------------------------------------------------------------
 Center     Atomic     Atomic              Coordinates (Angstroms)
 Number     Number      Type              X           Y           Z 
 ---------------------------------------------------------------------
    1          6             0        0.239196    0.669695    0.067965
    2          7             0       -0.056420   -0.194114    1.143631
    3          1             0       -0.754293    1.231292    0.122095
    4          1             0       -0.279188    0.240252    2.005223
    5          8             0       -0.079810   -0.355558   -1.249122
    6          1             0        0.233369   -1.110315    0.998348
 ---------------------------------------------------------------------

 Entering Gaussian System  

                          Input orientation:   
 ---------------------------------------------------------------------
 Center     Atomic     Atomic              Coordinates (Angstroms)
 Number     Number      Type              X           Y           Z 
 ---------------------------------------------------------------------
    1          6             0        0.246922    0.672199    0.071881
    2          7             0       -0.059873   -0.195808    1.137513
    3          1             0       -0.794633    1.269071    0.095229
    4          1             0       -0.257112    0.248203    1.983550
    5          8             0       -0.081181   -0.354966   -1.247969
    6          1             0        0.229382   -1.171763    1.066920
 ---------------------------------------------------------------------

 Entering Gaussian System  

                          Input orientation:   
 ---------------------------------------------------------------------
 Center     Atomic     Atomic              Coordinates (Angstroms)
 Number     Number      Type              X           Y           Z 
 ---------------------------------------------------------------------
    1          6             0        0.252960    0.670685    0.076366
    2          7             0       -0.061570   -0.195623    1.129748
    3          1             0       -0.826637    1.335355    0.064957
    4          1             0       -0.246592    0.253421    1.973600
    5          8             0       -0.082401   -0.353790   -1.246444
    6          1             0        0.221914   -1.246495    1.137379
 ---------------------------------------------------------------------

 Entering Gaussian System  

                          Input orientation:   
 ---------------------------------------------------------------------
 Center     Atomic     Atomic              Coordinates (Angstroms)
 Number     Number      Type              X           Y           Z 
 ---------------------------------------------------------------------
    1          6             0        0.257370    0.671434    0.079871
    2          7             0       -0.063255   -0.199565    1.122352
    3          1             0       -0.850085    1.372933    0.027638
    4          1             0       -0.235574    0.259910    1.970025
    5          8             0       -0.083210   -0.351982   -1.244674
    6          1             0        0.218079   -1.273415    1.211176
 ---------------------------------------------------------------------

 Entering Gaussian System  

                          Input orientation:   
 ---------------------------------------------------------------------
 Center     Atomic     Atomic              Coordinates (Angstroms)
 Number     Number      Type              X           Y           Z 
 ---------------------------------------------------------------------
    1          6             0        0.259523    0.675669    0.083372
    2          7             0       -0.065680   -0.208181    1.115668
    3          1             0       -0.865667    1.357586   -0.019653
    4          1             0       -0.213522    0.268637    1.965237
    5          8             0       -0.083083   -0.349211   -1.242916
    6          1             0        0.217731   -1.241532    1.286489
 ---------------------------------------------------------------------

 Entering Gaussian System  

                          Input orientation:   
 ---------------------------------------------------------------------
 Center     Atomic     Atomic              Coordinates (Angstroms)
 Number     Number      Type              X           Y           Z 
 ---------------------------------------------------------------------
    1          6             0        0.259674    0.683266    0.088885
    2          7             0       -0.069376   -0.218892    1.109677
    3          1             0       -0.874658    1.297085   -0.076997
    4          1             0       -0.176724    0.277200    1.953716
    5          8             0       -0.081996   -0.346066   -1.242398
    6          1             0        0.222395   -1.181221    1.364688
 ---------------------------------------------------------------------

 Entering Gaussian System  

                          Input orientation:   
 ---------------------------------------------------------------------
 Center     Atomic     Atomic              Coordinates (Angstroms)
 Number     Number      Type              X           Y           Z 
 ---------------------------------------------------------------------
    1          6             0        0.257300    0.692105    0.095143
    2          7             0       -0.073472   -0.227785    1.104645
    3          1             0       -0.874935    1.226356   -0.131479
    4          1             0       -0.130614    0.285633    1.936560
    5          8             0       -0.079934   -0.343383   -1.243057
    6          1             0        0.229237   -1.143277    1.442109
 ---------------------------------------------------------------------

 Entering Gaussian System  

                          Input orientation:   
 ---------------------------------------------------------------------
 Center     Atomic     Atomic              Coordinates (Angstroms)
 Number     Number      Type              X           Y           Z 
 ---------------------------------------------------------------------
    1          6             0        0.250879    0.697313    0.101433
    2          7             0       -0.076691   -0.233307    1.100941
    3          1             0       -0.855584    1.182786   -0.171864
    4          1             0       -0.087461    0.305152    1.925613
    5          8             0       -0.076903   -0.341031   -1.245410
    6          1             0        0.240050   -1.141901    1.507306
 ---------------------------------------------------------------------

 Entering Gaussian System  

                          Input orientation:   
 ---------------------------------------------------------------------
 Center     Atomic     Atomic              Coordinates (Angstroms)
 Number     Number      Type              X           Y           Z 
 ---------------------------------------------------------------------
    1          6             0        0.240119    0.694262    0.106549
    2          7             0       -0.079106   -0.235135    1.098884
    3          1             0       -0.814512    1.192914   -0.190233
    4          1             0       -0.047282    0.341645    1.932633
    5          8             0       -0.072847   -0.338557   -1.249073
    6          1             0        0.256399   -1.166045    1.544404
 ---------------------------------------------------------------------

 Entering Gaussian System  

                          Input orientation:   
 ---------------------------------------------------------------------
 Center     Atomic     Atomic              Coordinates (Angstroms)
 Number     Number      Type              X           Y           Z 
 ---------------------------------------------------------------------
    1          6             0        0.225162    0.681791    0.110442
    2          7             0       -0.080925   -0.233950    1.099646
    3          1             0       -0.754352    1.258291   -0.187312
    4          1             0       -0.006373    0.390194    1.950787
    5          8             0       -0.067659   -0.335643   -1.254142
    6          1             0        0.276658   -1.194082    1.546805
 ---------------------------------------------------------------------

 Entering Gaussian System  

                          Input orientation:   
 ---------------------------------------------------------------------
 Center     Atomic     Atomic              Coordinates (Angstroms)
 Number     Number      Type              X           Y           Z 
 ---------------------------------------------------------------------
    1          6             0        0.206304    0.660990    0.112191
    2          7             0       -0.082164   -0.231129    1.104649
    3          1             0       -0.679240    1.363326   -0.166214
    4          1             0        0.038401    0.444008    1.967442
    5          8             0       -0.061261   -0.331899   -1.260027
    6          1             0        0.297358   -1.203709    1.512091
 ---------------------------------------------------------------------

 Entering Gaussian System  

                          Input orientation:   
 ---------------------------------------------------------------------
 Center     Atomic     Atomic              Coordinates (Angstroms)
 Number     Number      Type              X           Y           Z 
 ---------------------------------------------------------------------
    1          6             0        0.184156    0.635305    0.110841
    2          7             0       -0.082390   -0.227219    1.115380
    3          1             0       -0.592650    1.480560   -0.129969
    4          1             0        0.083959    0.486491    1.964974
    5          8             0       -0.053870   -0.327508   -1.266275
    6          1             0        0.315168   -1.181391    1.444431
 ---------------------------------------------------------------------

 Entering Gaussian System  

                          Input orientation:   
 ---------------------------------------------------------------------
 Center     Atomic     Atomic              Coordinates (Angstroms)
 Number     Number      Type              X           Y           Z 
 ---------------------------------------------------------------------
    1          6             0        0.161877    0.611836    0.107429
    2          7             0       -0.080818   -0.222509    1.130304
    3          1             0       -0.503502    1.581110   -0.092803
    4          1             0        0.114189    0.499118    1.946557
    5          8             0       -0.046872   -0.324067   -1.272521
    6          1             0        0.328485   -1.134986    1.358095
 ---------------------------------------------------------------------

 Entering Gaussian System  

                          Input orientation:   
 ---------------------------------------------------------------------
 Center     Atomic     Atomic              Coordinates (Angstroms)
 Number     Number      Type              X           Y           Z 
 ---------------------------------------------------------------------
    1          6             0        0.138918    0.589705    0.101852
    2          7             0       -0.078221   -0.216073    1.148592
    3          1             0       -0.408495    1.665957   -0.052488
    4          1             0        0.134425    0.483766    1.916002
    5          8             0       -0.040014   -0.321089   -1.279003
    6          1             0        0.341960   -1.077454    1.263555
 ---------------------------------------------------------------------

 Entering Gaussian System  

                          Input orientation:   
 ---------------------------------------------------------------------
 Center     Atomic     Atomic              Coordinates (Angstroms)
 Number     Number      Type              X           Y           Z 
 ---------------------------------------------------------------------
    1          6             0        0.114182    0.568458    0.094066
    2          7             0       -0.075612   -0.208470    1.169254
    3          1             0       -0.299015    1.736404   -0.016308
    4          1             0        0.149062    0.451880    1.879103
    5          8             0       -0.033001   -0.317633   -1.285398
    6          1             0        0.365115   -1.023332    1.171435
 ---------------------------------------------------------------------

 Entering Gaussian System  

                          Input orientation:   
 ---------------------------------------------------------------------
 Center     Atomic     Atomic              Coordinates (Angstroms)
 Number     Number      Type              X           Y           Z 
 ---------------------------------------------------------------------
    1          6             0        0.087695    0.548802    0.086858
    2          7             0       -0.074081   -0.195845    1.189905
    3          1             0       -0.171773    1.788664    0.027996
    4          1             0        0.161935    0.406122    1.857904
    5          8             0       -0.025844   -0.315370   -1.293801
    6          1             0        0.405852   -1.006952    1.080639
 ---------------------------------------------------------------------

 Entering Gaussian System  

                          Input orientation:   
 ---------------------------------------------------------------------
 Center     Atomic     Atomic              Coordinates (Angstroms)
 Number     Number      Type              X           Y           Z 
 ---------------------------------------------------------------------
    1          6             0        0.060040    0.529677    0.080335
    2          7             0       -0.073876   -0.180738    1.207543
    3          1             0       -0.037145    1.835303    0.074908
    4          1             0        0.183430    0.370785    1.878035
    5          8             0       -0.018227   -0.313751   -1.303089
    6          1             0        0.455674   -1.025950    0.993664
 ---------------------------------------------------------------------

 Entering Gaussian System  

                          Input orientation:   
 ---------------------------------------------------------------------
 Center     Atomic     Atomic              Coordinates (Angstroms)
 Number     Number      Type              X           Y           Z 
 ---------------------------------------------------------------------
    1          6             0        0.029671    0.512897    0.074199
    2          7             0       -0.074054   -0.167601    1.220747
    3          1             0        0.100586    1.868718    0.127482
    4          1             0        0.222115    0.361988    1.954361
    5          8             0       -0.009211   -0.312964   -1.313345
    6          1             0        0.500701   -1.045636    0.917209
 ---------------------------------------------------------------------

 Entering Gaussian System  

                          Input orientation:   
 ---------------------------------------------------------------------
 Center     Atomic     Atomic              Coordinates (Angstroms)
 Number     Number      Type              X           Y           Z 
 ---------------------------------------------------------------------
    1          6             0       -0.003164    0.496922    0.068142
    2          7             0       -0.073075   -0.157532    1.229908
    3          1             0        0.234016    1.903298    0.180500
    4          1             0        0.273984    0.364799    2.060728
    5          8             0        0.001223   -0.312109   -1.323437
    6          1             0        0.527702   -1.046136    0.862912
 ---------------------------------------------------------------------

 Entering Gaussian System  

                          Input orientation:   
 ---------------------------------------------------------------------
 Center     Atomic     Atomic              Coordinates (Angstroms)
 Number     Number      Type              X           Y           Z 
 ---------------------------------------------------------------------
    1          6             0       -0.037672    0.482565    0.061102
    2          7             0       -0.069569   -0.149761    1.237731
    3          1             0        0.360589    1.942342    0.234327
    4          1             0        0.326798    0.350313    2.145066
    5          8             0        0.012534   -0.311139   -1.332056
    6          1             0        0.531455   -1.022991    0.836738
 ---------------------------------------------------------------------

 Entering Gaussian System  

                          Input orientation:   
 ---------------------------------------------------------------------
 Center     Atomic     Atomic              Coordinates (Angstroms)
 Number     Number      Type              X           Y           Z 
 ---------------------------------------------------------------------
    1          6             0       -0.072190    0.471009    0.054455
    2          7             0       -0.063131   -0.143728    1.245252
    3          1             0        0.478116    1.975375    0.285962
    4          1             0        0.369112    0.316033    2.191959
    5          8             0        0.023854   -0.310151   -1.340039
    6          1             0        0.513922   -0.983534    0.839606
 ---------------------------------------------------------------------

 Entering Gaussian System  

                          Input orientation:   
 ---------------------------------------------------------------------
 Center     Atomic     Atomic              Coordinates (Angstroms)
 Number     Number      Type              X           Y           Z 
 ---------------------------------------------------------------------
    1          6             0       -0.106629    0.461694    0.048585
    2          7             0       -0.053683   -0.139468    1.252141
    3          1             0        0.591474    2.009033    0.335673
    4          1             0        0.393924    0.270757    2.202031
    5          8             0        0.034837   -0.309065   -1.347380
    6          1             0        0.480551   -0.937363    0.870567
 ---------------------------------------------------------------------

 Entering Gaussian System  

                          Input orientation:   
 ---------------------------------------------------------------------
 Center     Atomic     Atomic              Coordinates (Angstroms)
 Number     Number      Type              X           Y           Z 
 ---------------------------------------------------------------------
    1          6             0       -0.141070    0.453384    0.041465
    2          7             0       -0.042094   -0.136397    1.258971
    3          1             0        0.704390    2.049187    0.386087
    4          1             0        0.403632    0.218150    2.175510
    5          8             0        0.045468   -0.307377   -1.352892
    6          1             0        0.438500   -0.895372    0.924080
 ---------------------------------------------------------------------

 Entering Gaussian System  

                          Input orientation:   
 ---------------------------------------------------------------------
 Center     Atomic     Atomic              Coordinates (Angstroms)
 Number     Number      Type              X           Y           Z 
 ---------------------------------------------------------------------
    1          6             0       -0.175939    0.446301    0.032731
    2          7             0       -0.029979   -0.133214    1.266211
    3          1             0        0.827965    2.095559    0.436204
    4          1             0        0.399551    0.165027    2.119762
    5          8             0        0.055630   -0.305372   -1.356365
    6          1             0        0.404756   -0.880283    0.988294
 ---------------------------------------------------------------------

 Entering Gaussian System  

                          Input orientation:   
 ---------------------------------------------------------------------
 Center     Atomic     Atomic              Coordinates (Angstroms)
 Number     Number      Type              X           Y           Z 
 ---------------------------------------------------------------------
    1          6             0       -0.209784    0.441709    0.023228
    2          7             0       -0.019903   -0.128358    1.273528
    3          1             0        0.960594    2.139293    0.482888
    4          1             0        0.392661    0.124386    2.055167
    5          8             0        0.065063   -0.303818   -1.358183
    6          1             0        0.392517   -0.920840    1.046629
 ---------------------------------------------------------------------

 Entering Gaussian System  

                          Input orientation:   
 ---------------------------------------------------------------------
 Center     Atomic     Atomic              Coordinates (Angstroms)
 Number     Number      Type              X           Y           Z 
 ---------------------------------------------------------------------
    1          6             0       -0.243182    0.437502    0.012552
    2          7             0       -0.013117   -0.122322    1.278276
    3          1             0        1.098623    2.182577    0.527596
    4          1             0        0.400331    0.112892    2.022196
    5          8             0        0.074517   -0.302251   -1.358055
    6          1             0        0.400440   -1.011267    1.094116
 ---------------------------------------------------------------------

 Entering Gaussian System  

                          Input orientation:   
 ---------------------------------------------------------------------
 Center     Atomic     Atomic              Coordinates (Angstroms)
 Number     Number      Type              X           Y           Z 
 ---------------------------------------------------------------------
    1          6             0       -0.277657    0.433104    0.001013
    2          7             0       -0.009084   -0.118908    1.277050
    3          1             0        1.230696    2.224195    0.571049
    4          1             0        0.442468    0.142977    2.053308
    5          8             0        0.085401   -0.300380   -1.355816
    6          1             0        0.408410   -1.107717    1.138561
 ---------------------------------------------------------------------

 Entering Gaussian System  

                          Input orientation:   
 ---------------------------------------------------------------------
 Center     Atomic     Atomic              Coordinates (Angstroms)
 Number     Number      Type              X           Y           Z 
 ---------------------------------------------------------------------
    1          6             0       -0.315280    0.428970   -0.010931
    2          7             0       -0.006399   -0.120183    1.268817
    3          1             0        1.354308    2.266326    0.622539
    4          1             0        0.525638    0.205535    2.146611
    5          8             0        0.098763   -0.299002   -1.351557
    6          1             0        0.400861   -1.167318    1.182920
 ---------------------------------------------------------------------

 Entering Gaussian System  

                          Input orientation:   
 ---------------------------------------------------------------------
 Center     Atomic     Atomic              Coordinates (Angstroms)
 Number     Number      Type              X           Y           Z 
 ---------------------------------------------------------------------
    1          6             0       -0.358227    0.427052   -0.024140
    2          7             0       -0.004320   -0.126376    1.256157
    3          1             0        1.478641    2.315658    0.699379
    4          1             0        0.647921    0.270167    2.257547
    5          8             0        0.115155   -0.299725   -1.345271
    6          1             0        0.377377   -1.160883    1.228679
 ---------------------------------------------------------------------

 Entering Gaussian System  

                          Input orientation:   
 ---------------------------------------------------------------------
 Center     Atomic     Atomic              Coordinates (Angstroms)
 Number     Number      Type              X           Y           Z 
 ---------------------------------------------------------------------
    1          6             0       -0.409032    0.424624   -0.039976
    2          7             0       -0.000701   -0.131022    1.242161
    3          1             0        1.621139    2.395919    0.820367
    4          1             0        0.789612    0.298532    2.352582
    5          8             0        0.134605   -0.303653   -1.336807
    6          1             0        0.340072   -1.113670    1.261498
 ---------------------------------------------------------------------

 Entering Gaussian System  

                          Input orientation:   
 ---------------------------------------------------------------------
 Center     Atomic     Atomic              Coordinates (Angstroms)
 Number     Number      Type              X           Y           Z 
 ---------------------------------------------------------------------
    1          6             0       -0.436172    0.424485   -0.048050
    2          7             0        0.001480   -0.132191    1.235858
    3          1             0        1.698304    2.443137    0.894591
    4          1             0        0.862242    0.293957    2.377542
    5          8             0        0.144891   -0.307077   -1.332289
    6          1             0        0.320358   -1.084054    1.274393
 ---------------------------------------------------------------------

 Entering Gaussian System  

                          Input orientation:   
 ---------------------------------------------------------------------
 Center     Atomic     Atomic              Coordinates (Angstroms)
 Number     Number      Type              X           Y           Z 
 ---------------------------------------------------------------------
    1          6             0       -0.436172    0.424485   -0.048050
    2          7             0        0.001480   -0.132191    1.235858
    3          1             0        1.698304    2.443137    0.894591
    4          1             0        0.862242    0.293957    2.377542
    5          8             0        0.144891   -0.307077   -1.332289
    6          1             0        0.320358   -1.084054    1.274393
 ---------------------------------------------------------------------

 Entering Gaussian System  

                          Input orientation:   
 ---------------------------------------------------------------------
 Center     Atomic     Atomic              Coordinates (Angstroms)
 Number     Number      Type              X           Y           Z 
 ---------------------------------------------------------------------
    1          6             0       -0.436172    0.424485   -0.048050
    2          7             0        0.001480   -0.132191    1.235858
    3          1             0        1.698304    2.443137    0.894591
    4          1             0        0.862242    0.293957    2.377542
    5          8             0        0.144891   -0.307077   -1.332289
    6          1             0        0.320358   -1.084054    1.274393
 ---------------------------------------------------------------------

 Entering Gaussian System  

                          Input orientation:   
 ---------------------------------------------------------------------
 Center     Atomic     Atomic              Coordinates (Angstroms)
 Number     Number      Type              X           Y           Z 
 ---------------------------------------------------------------------
    1          6             0       -0.436172    0.424485   -0.048050
    2          7             0        0.001480   -0.132191    1.235858
    3          1             0        1.698304    2.443137    0.894591
    4          1             0        0.862242    0.293957    2.377542
    5          8             0        0.144891   -0.307077   -1.332289
    6          1             0        0.320358   -1.084054    1.274393
 ---------------------------------------------------------------------

 Entering Gaussian System  

                          Input orientation:   
 ---------------------------------------------------------------------
 Center     Atomic     Atomic              Coordinates (Angstroms)
 Number     Number      Type              X           Y           Z 
 ---------------------------------------------------------------------
    1          6             0       -0.436172    0.424485   -0.048050
    2          7             0        0.001480   -0.132191    1.235858
    3          1             0        1.698304    2.443137    0.894591
    4          1             0        0.862242    0.293957    2.377542
    5          8             0        0.144891   -0.307077   -1.332289
    6          1             0        0.320358   -1.084054    1.274393
 ---------------------------------------------------------------------

 Entering Gaussian System  

                          Input orientation:   
 ---------------------------------------------------------------------
 Center     Atomic     Atomic              Coordinates (Angstroms)
 Number     Number      Type              X           Y           Z 
 ---------------------------------------------------------------------
    1          6             0       -0.436172    0.424485   -0.048050
    2          7             0        0.001480   -0.132191    1.235858
    3          1             0        1.698304    2.443137    0.894591
    4          1             0        0.862242    0.293957    2.377542
    5          8             0        0.144891   -0.307077   -1.332289
    6          1             0        0.320358   -1.084054    1.274393
 ---------------------------------------------------------------------

 Entering Gaussian System  

                          Input orientation:   
 ---------------------------------------------------------------------
 Center     Atomic     Atomic              Coordinates (Angstroms)
 Number     Number      Type              X           Y           Z 
 ---------------------------------------------------------------------
    1          6             0       -0.436172    0.424485   -0.048050
    2          7             0        0.001480   -0.132191    1.235858
    3          1             0        1.698304    2.443137    0.894591
    4          1             0        0.862242    0.293957    2.377542
    5          8             0        0.144891   -0.307077   -1.332289
    6          1             0        0.320358   -1.084054    1.274393
 ---------------------------------------------------------------------

 Entering Gaussian System  

                          Input orientation:   
 ---------------------------------------------------------------------
 Center     Atomic     Atomic              Coordinates (Angstroms)
 Number     Number      Type              X           Y           Z 
 ---------------------------------------------------------------------
    1          6             0       -0.436172    0.424485   -0.048050
    2          7             0        0.001480   -0.132191    1.235858
    3          1             0        1.698304    2.443137    0.894591
    4          1             0        0.862242    0.293957    2.377542
    5          8             0        0.144891   -0.307077   -1.332289
    6          1             0        0.320358   -1.084054    1.274393
 ---------------------------------------------------------------------

 Entering Gaussian System  

                          Input orientation:   
 ---------------------------------------------------------------------
 Center     Atomic     Atomic              Coordinates (Angstroms)
 Number     Number      Type              X           Y           Z 
 ---------------------------------------------------------------------
    1          6             0       -0.436172    0.424485   -0.048050
    2          7             0        0.001480   -0.132191    1.235858
    3          1             0        1.698304    2.443137    0.894591
    4          1             0        0.862242    0.293957    2.377542
    5          8             0        0.144891   -0.307077   -1.332289
    6          1             0        0.320358   -1.084054    1.274393
 ---------------------------------------------------------------------

 Entering Gaussian System  

                          Input orientation:   
 ---------------------------------------------------------------------
 Center     Atomic     Atomic              Coordinates (Angstroms)
 Number     Number      Type              X           Y           Z 
 ---------------------------------------------------------------------
    1          6             0       -0.436172    0.424485   -0.048050
    2          7             0        0.001480   -0.132191    1.235858
    3          1             0        1.698304    2.443137    0.894591
    4          1             0        0.862242    0.293957    2.377542
    5          8             0        0.144891   -0.307077   -1.332289
    6          1             0        0.320358   -1.084054    1.274393
 ---------------------------------------------------------------------

 Entering Gaussian System  

                          Input orientation:   
 ---------------------------------------------------------------------
 Center     Atomic     Atomic              Coordinates (Angstroms)
 Number     Number      Type              X           Y           Z 
 ---------------------------------------------------------------------
    1          6             0       -0.436172    0.424485   -0.048050
    2          7             0        0.001480   -0.132191    1.235858
    3          1             0        1.698304    2.443137    0.894591
    4          1             0        0.862242    0.293957    2.377542
    5          8             0        0.144891   -0.307077   -1.332289
    6          1             0        0.320358   -1.084054    1.274393
 ---------------------------------------------------------------------

 Entering Gaussian System  

                          Input orientation:   
 ---------------------------------------------------------------------
 Center     Atomic     Atomic              Coordinates (Angstroms)
 Number     Number      Type              X           Y           Z 
 ---------------------------------------------------------------------
    1          6             0       -0.436172    0.424485   -0.048050
    2          7             0        0.001480   -0.132191    1.235858
    3          1             0        1.698304    2.443137    0.894591
    4          1             0        0.862242    0.293957    2.377542
    5          8             0        0.144891   -0.307077   -1.332289
    6          1             0        0.320358   -1.084054    1.274393
 ---------------------------------------------------------------------

 Entering Gaussian System  

                          Input orientation:   
 ---------------------------------------------------------------------
 Center     Atomic     Atomic              Coordinates (Angstroms)
 Number     Number      Type              X           Y           Z 
 ---------------------------------------------------------------------
    1          6             0       -0.436172    0.424485   -0.048050
    2          7             0        0.001480   -0.132191    1.235858
    3          1             0        1.698304    2.443137    0.894591
    4          1             0        0.862242    0.293957    2.377542
    5          8             0        0.144891   -0.307077   -1.332289
    6          1             0        0.320358   -1.084054    1.274393
 ---------------------------------------------------------------------

 Entering Gaussian System  

                          Input orientation:   
 ---------------------------------------------------------------------
 Center     Atomic     Atomic              Coordinates (Angstroms)
 Number     Number      Type              X           Y           Z 
 ---------------------------------------------------------------------
    1          6             0       -0.436172    0.424485   -0.048050
    2          7             0        0.001480   -0.132191    1.235858
    3          1             0        1.698304    2.443137    0.894591
    4          1             0        0.862242    0.293957    2.377542
    5          8             0        0.144891   -0.307077   -1.332289
    6          1             0        0.320358   -1.084054    1.274393
 ---------------------------------------------------------------------

 Entering Gaussian System  

                          Input orientation:   
 ---------------------------------------------------------------------
 Center     Atomic     Atomic              Coordinates (Angstroms)
 Number     Number      Type              X           Y           Z 
 ---------------------------------------------------------------------
    1          6             0       -0.436172    0.424485   -0.048050
    2          7             0        0.001480   -0.132191    1.235858
    3          1             0        1.698304    2.443137    0.894591
    4          1             0        0.862242    0.293957    2.377542
    5          8             0        0.144891   -0.307077   -1.332289
    6          1             0        0.320358   -1.084054    1.274393
 ---------------------------------------------------------------------

 Entering Gaussian System  

                          Input orientation:   
 ---------------------------------------------------------------------
 Center     Atomic     Atomic              Coordinates (Angstroms)
 Number     Number      Type              X           Y           Z 
 ---------------------------------------------------------------------
    1          6             0       -0.436172    0.424485   -0.048050
    2          7             0        0.001480   -0.132191    1.235858
    3          1             0        1.698304    2.443137    0.894591
    4          1             0        0.862242    0.293957    2.377542
    5          8             0        0.144891   -0.307077   -1.332289
    6          1             0        0.320358   -1.084054    1.274393
 ---------------------------------------------------------------------

 Entering Gaussian System  

                          Input orientation:   
 ---------------------------------------------------------------------
 Center     Atomic     Atomic              Coordinates (Angstroms)
 Number     Number      Type              X           Y           Z 
 ---------------------------------------------------------------------
    1          6             0       -0.436172    0.424485   -0.048050
    2          7             0        0.001480   -0.132191    1.235858
    3          1             0        1.698304    2.443137    0.894591
    4          1             0        0.862242    0.293957    2.377542
    5          8             0        0.144891   -0.307077   -1.332289
    6          1             0        0.320358   -1.084054    1.274393
 ---------------------------------------------------------------------

 Entering Gaussian System  

                          Input orientation:   
 ---------------------------------------------------------------------
 Center     Atomic     Atomic              Coordinates (Angstroms)
 Number     Number      Type              X           Y           Z 
 ---------------------------------------------------------------------
    1          6             0       -0.436172    0.424485   -0.048050
    2          7             0        0.001480   -0.132191    1.235858
    3          1             0        1.698304    2.443137    0.894591
    4          1             0        0.862242    0.293957    2.377542
    5          8             0        0.144891   -0.307077   -1.332289
    6          1             0        0.320358   -1.084054    1.274393
 ---------------------------------------------------------------------

 Entering Gaussian System  

                          Input orientation:   
 ---------------------------------------------------------------------
 Center     Atomic     Atomic              Coordinates (Angstroms)
 Number     Number      Type              X           Y           Z 
 ---------------------------------------------------------------------
    1          6             0       -0.436172    0.424485   -0.048050
    2          7             0        0.001480   -0.132191    1.235858
    3          1             0        1.698304    2.443137    0.894591
    4          1             0        0.862242    0.293957    2.377542
    5          8             0        0.144891   -0.307077   -1.332289
    6          1             0        0.320358   -1.084054    1.274393
 ---------------------------------------------------------------------

 Entering Gaussian System  

                          Input orientation:   
 ---------------------------------------------------------------------
 Center     Atomic     Atomic              Coordinates (Angstroms)
 Number     Number      Type              X           Y           Z 
 ---------------------------------------------------------------------
    1          6             0       -0.436172    0.424485   -0.048050
    2          7             0        0.001480   -0.132191    1.235858
    3          1             0        1.698304    2.443137    0.894591
    4          1             0        0.862242    0.293957    2.377542
    5          8             0        0.144891   -0.307077   -1.332289
    6          1             0        0.320358   -1.084054    1.274393
 ---------------------------------------------------------------------

 Entering Gaussian System  

                          Input orientation:   
 ---------------------------------------------------------------------
 Center     Atomic     Atomic              Coordinates (Angstroms)
 Number     Number      Type              X           Y           Z 
 ---------------------------------------------------------------------
    1          6             0       -0.436172    0.424485   -0.048050
    2          7             0        0.001480   -0.132191    1.235858
    3          1             0        1.698304    2.443137    0.894591
    4          1             0        0.862242    0.293957    2.377542
    5          8             0        0.144891   -0.307077   -1.332289
    6          1             0        0.320358   -1.084054    1.274393
 ---------------------------------------------------------------------

 Entering Gaussian System  

                          Input orientation:   
 ---------------------------------------------------------------------
 Center     Atomic     Atomic              Coordinates (Angstroms)
 Number     Number      Type              X           Y           Z 
 ---------------------------------------------------------------------
    1          6             0       -0.436172    0.424485   -0.048050
    2          7             0        0.001480   -0.132191    1.235858
    3          1             0        1.698304    2.443137    0.894591
    4          1             0        0.862242    0.293957    2.377542
    5          8             0        0.144891   -0.307077   -1.332289
    6          1             0        0.320358   -1.084054    1.274393
 ---------------------------------------------------------------------

 Entering Gaussian System  

                          Input orientation:   
 ---------------------------------------------------------------------
 Center     Atomic     Atomic              Coordinates (Angstroms)
 Number     Number      Type              X           Y           Z 
 ---------------------------------------------------------------------
    1          6             0       -0.436172    0.424485   -0.048050
    2          7             0        0.001480   -0.132191    1.235858
    3          1             0        1.698304    2.443137    0.894591
    4          1             0        0.862242    0.293957    2.377542
    5          8             0        0.144891   -0.307077   -1.332289
    6          1             0        0.320358   -1.084054    1.274393
 ---------------------------------------------------------------------

 Entering Gaussian System  

                          Input orientation:   
 ---------------------------------------------------------------------
 Center     Atomic     Atomic              Coordinates (Angstroms)
 Number     Number      Type              X           Y           Z 
 ---------------------------------------------------------------------
    1          6             0       -0.436172    0.424485   -0.048050
    2          7             0        0.001480   -0.132191    1.235858
    3          1             0        1.698304    2.443137    0.894591
    4          1             0        0.862242    0.293957    2.377542
    5          8             0        0.144891   -0.307077   -1.332289
    6          1             0        0.320358   -1.084054    1.274393
 ---------------------------------------------------------------------

 Entering Gaussian System  

                          Input orientation:   
 ---------------------------------------------------------------------
 Center     Atomic     Atomic              Coordinates (Angstroms)
 Number     Number      Type              X           Y           Z 
 ---------------------------------------------------------------------
    1          6             0       -0.436172    0.424485   -0.048050
    2          7             0        0.001480   -0.132191    1.235858
    3          1             0        1.698304    2.443137    0.894591
    4          1             0        0.862242    0.293957    2.377542
    5          8             0        0.144891   -0.307077   -1.332289
    6          1             0        0.320358   -1.084054    1.274393
 ---------------------------------------------------------------------

 Entering Gaussian System  

                          Input orientation:   
 ---------------------------------------------------------------------
 Center     Atomic     Atomic              Coordinates (Angstroms)
 Number     Number      Type              X           Y           Z 
 ---------------------------------------------------------------------
    1          6             0       -0.436172    0.424485   -0.048050
    2          7             0        0.001480   -0.132191    1.235858
    3          1             0        1.698304    2.443137    0.894591
    4          1             0        0.862242    0.293957    2.377542
    5          8             0        0.144891   -0.307077   -1.332289
    6          1             0        0.320358   -1.084054    1.274393
 ---------------------------------------------------------------------

 Entering Gaussian System  

                          Input orientation:   
 ---------------------------------------------------------------------
 Center     Atomic     Atomic              Coordinates (Angstroms)
 Number     Number      Type              X           Y           Z 
 ---------------------------------------------------------------------
    1          6             0       -0.436172    0.424485   -0.048050
    2          7             0        0.001480   -0.132191    1.235858
    3          1             0        1.698304    2.443137    0.894591
    4          1             0        0.862242    0.293957    2.377542
    5          8             0        0.144891   -0.307077   -1.332289
    6          1             0        0.320358   -1.084054    1.274393
 ---------------------------------------------------------------------

 Entering Gaussian System  

                          Input orientation:   
 ---------------------------------------------------------------------
 Center     Atomic     Atomic              Coordinates (Angstroms)
 Number     Number      Type              X           Y           Z 
 ---------------------------------------------------------------------
    1          6             0       -0.436172    0.424485   -0.048050
    2          7             0        0.001480   -0.132191    1.235858
    3          1             0        1.698304    2.443137    0.894591
    4          1             0        0.862242    0.293957    2.377542
    5          8             0        0.144891   -0.307077   -1.332289
    6          1             0        0.320358   -1.084054    1.274393
 ---------------------------------------------------------------------

 Entering Gaussian System  

                          Input orientation:   
 ---------------------------------------------------------------------
 Center     Atomic     Atomic              Coordinates (Angstroms)
 Number     Number      Type              X           Y           Z 
 ---------------------------------------------------------------------
    1          6             0       -0.436172    0.424485   -0.048050
    2          7             0        0.001480   -0.132191    1.235858
    3          1             0        1.698304    2.443137    0.894591
    4          1             0        0.862242    0.293957    2.377542
    5          8             0        0.144891   -0.307077   -1.332289
    6          1             0        0.320358   -1.084054    1.274393
 ---------------------------------------------------------------------

 Entering Gaussian System  

                          Input orientation:   
 ---------------------------------------------------------------------
 Center     Atomic     Atomic              Coordinates (Angstroms)
 Number     Number      Type              X           Y           Z 
 ---------------------------------------------------------------------
    1          6             0       -0.436172    0.424485   -0.048050
    2          7             0        0.001480   -0.132191    1.235858
    3          1             0        1.698304    2.443137    0.894591
    4          1             0        0.862242    0.293957    2.377542
    5          8             0        0.144891   -0.307077   -1.332289
    6          1             0        0.320358   -1.084054    1.274393
 ---------------------------------------------------------------------

 Entering Gaussian System  

                          Input orientation:   
 ---------------------------------------------------------------------
 Center     Atomic     Atomic              Coordinates (Angstroms)
 Number     Number      Type              X           Y           Z 
 ---------------------------------------------------------------------
    1          6             0       -0.436172    0.424485   -0.048050
    2          7             0        0.001480   -0.132191    1.235858
    3          1             0        1.698304    2.443137    0.894591
    4          1             0        0.862242    0.293957    2.377542
    5          8             0        0.144891   -0.307077   -1.332289
    6          1             0        0.320358   -1.084054    1.274393
 ---------------------------------------------------------------------
