
 Entering Gaussian System  

                          Input orientation:   
 ---------------------------------------------------------------------
 Center     Atomic     Atomic              Coordinates (Angstroms)
 Number     Number      Type              X           Y           Z 
 ---------------------------------------------------------------------
    1          6             0        0.000000    0.401721   -0.096031
    2          7             0        0.000000   -0.162504    1.145371
    3          1             0        0.000000    1.541283   -0.009698
    4          1             0        0.000000    0.374796    1.979555
    5          8             0        0.000000   -0.207339   -1.131411
    6          1             0        0.000000   -1.153754    1.217289
 ---------------------------------------------------------------------

 Entering Gaussian System  

                          Input orientation:   
 ---------------------------------------------------------------------
 Center     Atomic     Atomic              Coordinates (Angstroms)
 Number     Number      Type              X           Y           Z 
 ---------------------------------------------------------------------
    1          6             0       -0.001570    0.390329   -0.087137
    2          7             0       -0.008793   -0.162467    1.164111
    3          1             0        0.019421    1.502792   -0.069858
    4          1             0        0.051397    0.393380    1.976536
    5          8             0        0.001312   -0.198777   -1.153768
    6          1             0        0.049533   -1.134533    1.268930
 ---------------------------------------------------------------------

 Entering Gaussian System  

                          Input orientation:   
 ---------------------------------------------------------------------
 Center     Atomic     Atomic              Coordinates (Angstroms)
 Number     Number      Type              X           Y           Z 
 ---------------------------------------------------------------------
    1          6             0       -0.004785    0.385590   -0.076043
    2          7             0       -0.009025   -0.159828    1.166748
    3          1             0        0.013876    1.520776   -0.067174
    4          1             0        0.081229    0.401941    1.972839
    5          8             0        0.003463   -0.199142   -1.165350
    6          1             0        0.032753   -1.135514    1.284941
 ---------------------------------------------------------------------

 Entering Gaussian System  

                          Input orientation:   
 ---------------------------------------------------------------------
 Center     Atomic     Atomic              Coordinates (Angstroms)
 Number     Number      Type              X           Y           Z 
 ---------------------------------------------------------------------
    1          6             0       -0.003792    0.389408   -0.058660
    2          7             0       -0.009147   -0.159777    1.172621
    3          1             0        0.021208    1.523740   -0.086234
    4          1             0        0.066675    0.411584    1.975727
    5          8             0        0.002510   -0.202974   -1.183283
    6          1             0        0.044916   -1.133498    1.296998
 ---------------------------------------------------------------------

 Entering Gaussian System  

                          Input orientation:   
 ---------------------------------------------------------------------
 Center     Atomic     Atomic              Coordinates (Angstroms)
 Number     Number      Type              X           Y           Z 
 ---------------------------------------------------------------------
    1          6             0       -0.006923    0.403777   -0.039735
    2          7             0       -0.009336   -0.162272    1.175638
    3          1             0        0.038152    1.521811   -0.106127
    4          1             0        0.068616    0.416670    1.982380
    5          8             0        0.003312   -0.211512   -1.199705
    6          1             0        0.053259   -1.137669    1.303459
 ---------------------------------------------------------------------

 Entering Gaussian System  

                          Input orientation:   
 ---------------------------------------------------------------------
 Center     Atomic     Atomic              Coordinates (Angstroms)
 Number     Number      Type              X           Y           Z 
 ---------------------------------------------------------------------
    1          6             0       -0.006912    0.425722   -0.022152
    2          7             0       -0.013508   -0.167873    1.176912
    3          1             0        0.047846    1.527952   -0.130812
    4          1             0        0.087386    0.413534    1.976813
    5          8             0        0.003486   -0.223074   -1.212029
    6          1             0        0.080000   -1.140817    1.302093
 ---------------------------------------------------------------------

 Entering Gaussian System  

                          Input orientation:   
 ---------------------------------------------------------------------
 Center     Atomic     Atomic              Coordinates (Angstroms)
 Number     Number      Type              X           Y           Z 
 ---------------------------------------------------------------------
    1          6             0       -0.005704    0.443657   -0.004615
    2          7             0       -0.021560   -0.173209    1.182864
    3          1             0        0.058023    1.542070   -0.161830
    4          1             0        0.125927    0.412386    1.970083
    5          8             0        0.003652   -0.232831   -1.228202
    6          1             0        0.126375   -1.138482    1.304874
 ---------------------------------------------------------------------

 Entering Gaussian System  

                          Input orientation:   
 ---------------------------------------------------------------------
 Center     Atomic     Atomic              Coordinates (Angstroms)
 Number     Number      Type              X           Y           Z 
 ---------------------------------------------------------------------
    1          6             0       -0.009340    0.463424    0.010180
    2          7             0       -0.025492   -0.179005    1.189445
    3          1             0        0.078556    1.553324   -0.176042
    4          1             0        0.154270    0.410811    1.963480
    5          8             0        0.005190   -0.243575   -1.243811
    6          1             0        0.151190   -1.132613    1.305686
 ---------------------------------------------------------------------

 Entering Gaussian System  

                          Input orientation:   
 ---------------------------------------------------------------------
 Center     Atomic     Atomic              Coordinates (Angstroms)
 Number     Number      Type              X           Y           Z 
 ---------------------------------------------------------------------
    1          6             0       -0.010551    0.481498    0.019606
    2          7             0       -0.029686   -0.184959    1.198251
    3          1             0        0.088448    1.563649   -0.190875
    4          1             0        0.181124    0.407545    1.960401
    5          8             0        0.006037   -0.252669   -1.257415
    6          1             0        0.173860   -1.127956    1.304832
 ---------------------------------------------------------------------

 Entering Gaussian System  

                          Input orientation:   
 ---------------------------------------------------------------------
 Center     Atomic     Atomic              Coordinates (Angstroms)
 Number     Number      Type              X           Y           Z 
 ---------------------------------------------------------------------
    1          6             0       -0.012233    0.499551    0.024558
    2          7             0       -0.032939   -0.190372    1.208073
    3          1             0        0.102246    1.568537   -0.201857
    4          1             0        0.199557    0.401709    1.962835
    5          8             0        0.006755   -0.261117   -1.268984
    6          1             0        0.195596   -1.132802    1.301527
 ---------------------------------------------------------------------

 Entering Gaussian System  

                          Input orientation:   
 ---------------------------------------------------------------------
 Center     Atomic     Atomic              Coordinates (Angstroms)
 Number     Number      Type              X           Y           Z 
 ---------------------------------------------------------------------
    1          6             0       -0.015079    0.518732    0.025822
    2          7             0       -0.036287   -0.194842    1.218194
    3          1             0        0.120924    1.561939   -0.202756
    4          1             0        0.220591    0.393084    1.969256
    5          8             0        0.007857   -0.269613   -1.278814
    6          1             0        0.218946   -1.149170    1.296323
 ---------------------------------------------------------------------

 Entering Gaussian System  

                          Input orientation:   
 ---------------------------------------------------------------------
 Center     Atomic     Atomic              Coordinates (Angstroms)
 Number     Number      Type              X           Y           Z 
 ---------------------------------------------------------------------
    1          6             0       -0.017720    0.538429    0.024323
    2          7             0       -0.040216   -0.198531    1.227926
    3          1             0        0.139896    1.548629   -0.194145
    4          1             0        0.244149    0.381283    1.981421
    5          8             0        0.008931   -0.278231   -1.287067
    6          1             0        0.245579   -1.170701    1.289185
 ---------------------------------------------------------------------

 Entering Gaussian System  

                          Input orientation:   
 ---------------------------------------------------------------------
 Center     Atomic     Atomic              Coordinates (Angstroms)
 Number     Number      Type              X           Y           Z 
 ---------------------------------------------------------------------
    1          6             0       -0.020439    0.556954    0.020105
    2          7             0       -0.045118   -0.201942    1.236957
    3          1             0        0.160642    1.535437   -0.179159
    4          1             0        0.273204    0.366393    1.999090
    5          8             0        0.010118   -0.286311   -1.293327
    6          1             0        0.277615   -1.187707    1.280658
 ---------------------------------------------------------------------

 Entering Gaussian System  

                          Input orientation:   
 ---------------------------------------------------------------------
 Center     Atomic     Atomic              Coordinates (Angstroms)
 Number     Number      Type              X           Y           Z 
 ---------------------------------------------------------------------
    1          6             0       -0.023861    0.571960    0.013205
    2          7             0       -0.051173   -0.205439    1.244913
    3          1             0        0.184498    1.536430   -0.161951
    4          1             0        0.311650    0.345933    2.021472
    5          8             0        0.011722   -0.293309   -1.296623
    6          1             0        0.314996   -1.187367    1.265064
 ---------------------------------------------------------------------

 Entering Gaussian System  

                          Input orientation:   
 ---------------------------------------------------------------------
 Center     Atomic     Atomic              Coordinates (Angstroms)
 Number     Number      Type              X           Y           Z 
 ---------------------------------------------------------------------
    1          6             0       -0.027811    0.582265    0.004687
    2          7             0       -0.057716   -0.208896    1.251872
    3          1             0        0.211388    1.561227   -0.144529
    4          1             0        0.353532    0.316376    2.041388
    5          8             0        0.013531   -0.299224   -1.296995
    6          1             0        0.355719   -1.163449    1.238431
 ---------------------------------------------------------------------

 Entering Gaussian System  

                          Input orientation:   
 ---------------------------------------------------------------------
 Center     Atomic     Atomic              Coordinates (Angstroms)
 Number     Number      Type              X           Y           Z 
 ---------------------------------------------------------------------
    1          6             0       -0.032133    0.588388   -0.003266
    2          7             0       -0.063267   -0.211561    1.257624
    3          1             0        0.241659    1.604737   -0.125208
    4          1             0        0.386599    0.278522    2.051066
    5          8             0        0.015178   -0.304394   -1.295753
    6          1             0        0.395082   -1.122959    1.204555
 ---------------------------------------------------------------------

 Entering Gaussian System  

                          Input orientation:   
 ---------------------------------------------------------------------
 Center     Atomic     Atomic              Coordinates (Angstroms)
 Number     Number      Type              X           Y           Z 
 ---------------------------------------------------------------------
    1          6             0       -0.037009    0.591200   -0.008832
    2          7             0       -0.067211   -0.212466    1.261528
    3          1             0        0.275585    1.655915   -0.102983
    4          1             0        0.407232    0.236342    2.048248
    5          8             0        0.016638   -0.309034   -1.293839
    6          1             0        0.430391   -1.079221    1.166842
 ---------------------------------------------------------------------

 Entering Gaussian System  

                          Input orientation:   
 ---------------------------------------------------------------------
 Center     Atomic     Atomic              Coordinates (Angstroms)
 Number     Number      Type              X           Y           Z 
 ---------------------------------------------------------------------
    1          6             0       -0.042840    0.591770   -0.011195
    2          7             0       -0.069608   -0.211107    1.263270
    3          1             0        0.313783    1.702147   -0.077373
    4          1             0        0.417812    0.193438    2.032475
    5          8             0        0.018111   -0.313255   -1.291671
    6          1             0        0.461116   -1.041200    1.126539
 ---------------------------------------------------------------------

 Entering Gaussian System  

                          Input orientation:   
 ---------------------------------------------------------------------
 Center     Atomic     Atomic              Coordinates (Angstroms)
 Number     Number      Type              X           Y           Z 
 ---------------------------------------------------------------------
    1          6             0       -0.048920    0.591993   -0.011891
    2          7             0       -0.071137   -0.208569    1.263313
    3          1             0        0.350683    1.725307   -0.050271
    4          1             0        0.425274    0.158977    2.011825
    5          8             0        0.019644   -0.316788   -1.288881
    6          1             0        0.486192   -1.011719    1.083517
 ---------------------------------------------------------------------

 Entering Gaussian System  

                          Input orientation:   
 ---------------------------------------------------------------------
 Center     Atomic     Atomic              Coordinates (Angstroms)
 Number     Number      Type              X           Y           Z 
 ---------------------------------------------------------------------
    1          6             0       -0.054477    0.593567   -0.012429
    2          7             0       -0.072581   -0.206195    1.262003
    3          1             0        0.380878    1.713125   -0.025055
    4          1             0        0.436661    0.142534    1.996848
    5          8             0        0.021256   -0.319440   -1.285070
    6          1             0        0.505367   -0.992732    1.037410
 ---------------------------------------------------------------------

 Entering Gaussian System  

                          Input orientation:   
 ---------------------------------------------------------------------
 Center     Atomic     Atomic              Coordinates (Angstroms)
 Number     Number      Type              X           Y           Z 
 ---------------------------------------------------------------------
    1          6             0       -0.059519    0.596408   -0.012608
    2          7             0       -0.073919   -0.204352    1.259003
    3          1             0        0.402399    1.669154   -0.004062
    4          1             0        0.454269    0.146746    1.991115
    5          8             0        0.023062   -0.321127   -1.280370
    6          1             0        0.516348   -0.985645    0.991374
 ---------------------------------------------------------------------

 Entering Gaussian System  

                          Input orientation:   
 ---------------------------------------------------------------------
 Center     Atomic     Atomic              Coordinates (Angstroms)
 Number     Number      Type              X           Y           Z 
 ---------------------------------------------------------------------
    1          6             0       -0.064019    0.600085   -0.012163
    2          7             0       -0.075199   -0.203528    1.253785
    3          1             0        0.415320    1.601817    0.011978
    4          1             0        0.478150    0.168973    1.996575
    5          8             0        0.025050   -0.321957   -1.274766
    6          1             0        0.519489   -0.982630    0.948144
 ---------------------------------------------------------------------

 Entering Gaussian System  

                          Input orientation:   
 ---------------------------------------------------------------------
 Center     Atomic     Atomic              Coordinates (Angstroms)
 Number     Number      Type              X           Y           Z 
 ---------------------------------------------------------------------
    1          6             0       -0.068268    0.603474   -0.011071
    2          7             0       -0.075877   -0.203536    1.246739
    3          1             0        0.421814    1.527760    0.022598
    4          1             0        0.503677    0.200640    2.005104
    5          8             0        0.027162   -0.321944   -1.268330
    6          1             0        0.514089   -0.980724    0.911760
 ---------------------------------------------------------------------

 Entering Gaussian System  

                          Input orientation:   
 ---------------------------------------------------------------------
 Center     Atomic     Atomic              Coordinates (Angstroms)
 Number     Number      Type              X           Y           Z 
 ---------------------------------------------------------------------
    1          6             0       -0.073612    0.605499   -0.009721
    2          7             0       -0.074636   -0.204227    1.238848
    3          1             0        0.430619    1.458443    0.025663
    4          1             0        0.519726    0.232752    2.000486
    5          8             0        0.029412   -0.320697   -1.260708
    6          1             0        0.500010   -0.977846    0.885901
 ---------------------------------------------------------------------

 Entering Gaussian System  

                          Input orientation:   
 ---------------------------------------------------------------------
 Center     Atomic     Atomic              Coordinates (Angstroms)
 Number     Number      Type              X           Y           Z 
 ---------------------------------------------------------------------
    1          6             0       -0.081268    0.604870   -0.008347
    2          7             0       -0.070939   -0.205161    1.230639
    3          1             0        0.449674    1.411428    0.020731
    4          1             0        0.520958    0.258368    1.975476
    5          8             0        0.031924   -0.318195   -1.251797
    6          1             0        0.479670   -0.975681    0.872102
 ---------------------------------------------------------------------

 Entering Gaussian System  

                          Input orientation:   
 ---------------------------------------------------------------------
 Center     Atomic     Atomic              Coordinates (Angstroms)
 Number     Number      Type              X           Y           Z 
 ---------------------------------------------------------------------
    1          6             0       -0.093446    0.599586   -0.007162
    2          7             0       -0.064964   -0.206069    1.221998
    3          1             0        0.491131    1.409274    0.008886
    4          1             0        0.508830    0.278338    1.935892
    5          8             0        0.035263   -0.314474   -1.241665
    6          1             0        0.459333   -0.977008    0.868658
 ---------------------------------------------------------------------

 Entering Gaussian System  

                          Input orientation:   
 ---------------------------------------------------------------------
 Center     Atomic     Atomic              Coordinates (Angstroms)
 Number     Number      Type              X           Y           Z 
 ---------------------------------------------------------------------
    1          6             0       -0.110715    0.589852   -0.006569
    2          7             0       -0.057208   -0.207069    1.212735
    3          1             0        0.556474    1.446643   -0.009701
    4          1             0        0.489014    0.297913    1.891118
    5          8             0        0.039747   -0.309510   -1.230182
    6          1             0        0.440519   -0.982855    0.871401
 ---------------------------------------------------------------------

 Entering Gaussian System  

                          Input orientation:   
 ---------------------------------------------------------------------
 Center     Atomic     Atomic              Coordinates (Angstroms)
 Number     Number      Type              X           Y           Z 
 ---------------------------------------------------------------------
    1          6             0       -0.129872    0.578758   -0.007146
    2          7             0       -0.049059   -0.207974    1.202854
    3          1             0        0.629802    1.490904   -0.034523
    4          1             0        0.469332    0.319319    1.848887
    5          8             0        0.044754   -0.303578   -1.217293
    6          1             0        0.422316   -0.997916    0.878047
 ---------------------------------------------------------------------

 Entering Gaussian System  

                          Input orientation:   
 ---------------------------------------------------------------------
 Center     Atomic     Atomic              Coordinates (Angstroms)
 Number     Number      Type              X           Y           Z 
 ---------------------------------------------------------------------
    1          6             0       -0.145114    0.570504   -0.010222
    2          7             0       -0.042597   -0.208643    1.192819
    3          1             0        0.686910    1.496988   -0.061864
    4          1             0        0.455314    0.340508    1.812286
    5          8             0        0.048812   -0.296906   -1.203005
    6          1             0        0.406546   -1.023475    0.891293
 ---------------------------------------------------------------------

 Entering Gaussian System  

                          Input orientation:   
 ---------------------------------------------------------------------
 Center     Atomic     Atomic              Coordinates (Angstroms)
 Number     Number      Type              X           Y           Z 
 ---------------------------------------------------------------------
    1          6             0       -0.155545    0.564645   -0.015305
    2          7             0       -0.038366   -0.209121    1.182074
    3          1             0        0.722138    1.469563   -0.089732
    4          1             0        0.451760    0.364817    1.789166
    5          8             0        0.051845   -0.289708   -1.187782
    6          1             0        0.392202   -1.058170    0.910551
 ---------------------------------------------------------------------

 Entering Gaussian System  

                          Input orientation:   
 ---------------------------------------------------------------------
 Center     Atomic     Atomic              Coordinates (Angstroms)
 Number     Number      Type              X           Y           Z 
 ---------------------------------------------------------------------
    1          6             0       -0.160998    0.559995   -0.022021
    2          7             0       -0.036343   -0.209824    1.170434
    3          1             0        0.735431    1.423580   -0.113697
    4          1             0        0.457422    0.393025    1.781784
    5          8             0        0.053759   -0.282252   -1.172198
    6          1             0        0.379731   -1.093561    0.936301
 ---------------------------------------------------------------------

 Entering Gaussian System  

                          Input orientation:   
 ---------------------------------------------------------------------
 Center     Atomic     Atomic              Coordinates (Angstroms)
 Number     Number      Type              X           Y           Z 
 ---------------------------------------------------------------------
    1          6             0       -0.161195    0.556291   -0.030370
    2          7             0       -0.035782   -0.211017    1.158524
    3          1             0        0.726133    1.366891   -0.129267
    4          1             0        0.465808    0.420966    1.784851
    5          8             0        0.054304   -0.274919   -1.156707
    6          1             0        0.366560   -1.120519    0.967917
 ---------------------------------------------------------------------

 Entering Gaussian System  

                          Input orientation:   
 ---------------------------------------------------------------------
 Center     Atomic     Atomic              Coordinates (Angstroms)
 Number     Number      Type              X           Y           Z 
 ---------------------------------------------------------------------
    1          6             0       -0.155746    0.555797   -0.041451
    2          7             0       -0.035677   -0.212836    1.148043
    3          1             0        0.691402    1.293113   -0.138956
    4          1             0        0.470363    0.438144    1.785223
    5          8             0        0.053249   -0.268130   -1.141040
    6          1             0        0.347070   -1.140529    1.006247
 ---------------------------------------------------------------------

 Entering Gaussian System  

                          Input orientation:   
 ---------------------------------------------------------------------
 Center     Atomic     Atomic              Coordinates (Angstroms)
 Number     Number      Type              X           Y           Z 
 ---------------------------------------------------------------------
    1          6             0       -0.145631    0.558584   -0.055641
    2          7             0       -0.035125   -0.215232    1.139706
    3          1             0        0.637361    1.211121   -0.142977
    4          1             0        0.463679    0.440801    1.775829
    5          8             0        0.050628   -0.262070   -1.125160
    6          1             0        0.321120   -1.157309    1.052554
 ---------------------------------------------------------------------

 Entering Gaussian System  

                          Input orientation:   
 ---------------------------------------------------------------------
 Center     Atomic     Atomic              Coordinates (Angstroms)
 Number     Number      Type              X           Y           Z 
 ---------------------------------------------------------------------
    1          6             0       -0.133800    0.562569   -0.071726
    2          7             0       -0.033506   -0.217643    1.133013
    3          1             0        0.579594    1.142305   -0.144567
    4          1             0        0.442227    0.429167    1.760325
    5          8             0        0.047078   -0.256729   -1.109528
    6          1             0        0.293095   -1.175637    1.106217
 ---------------------------------------------------------------------

 Entering Gaussian System  

                          Input orientation:   
 ---------------------------------------------------------------------
 Center     Atomic     Atomic              Coordinates (Angstroms)
 Number     Number      Type              X           Y           Z 
 ---------------------------------------------------------------------
    1          6             0       -0.128795    0.561888   -0.086662
    2          7             0       -0.030663   -0.218973    1.127256
    3          1             0        0.556997    1.133397   -0.148985
    4          1             0        0.415171    0.400990    1.749157
    5          8             0        0.045089   -0.251994   -1.095549
    6          1             0        0.275046   -1.187134    1.157874
 ---------------------------------------------------------------------

 Entering Gaussian System  

                          Input orientation:   
 ---------------------------------------------------------------------
 Center     Atomic     Atomic              Coordinates (Angstroms)
 Number     Number      Type              X           Y           Z 
 ---------------------------------------------------------------------
    1          6             0       -0.133884    0.554601   -0.099068
    2          7             0       -0.026742   -0.218895    1.121829
    3          1             0        0.583837    1.196811   -0.157176
    4          1             0        0.388274    0.361429    1.751424
    5          8             0        0.045685   -0.247856   -1.083895
    6          1             0        0.271677   -1.190903    1.202073
 ---------------------------------------------------------------------

 Entering Gaussian System  

                          Input orientation:   
 ---------------------------------------------------------------------
 Center     Atomic     Atomic              Coordinates (Angstroms)
 Number     Number      Type              X           Y           Z 
 ---------------------------------------------------------------------
    1          6             0       -0.145225    0.544359   -0.109269
    2          7             0       -0.022412   -0.219048    1.116559
    3          1             0        0.638666    1.307132   -0.164041
    4          1             0        0.366518    0.326355    1.772786
    5          8             0        0.048079   -0.244970   -1.074692
    6          1             0        0.275479   -1.187775    1.236267
 ---------------------------------------------------------------------

 Entering Gaussian System  

                          Input orientation:   
 ---------------------------------------------------------------------
 Center     Atomic     Atomic              Coordinates (Angstroms)
 Number     Number      Type              X           Y           Z 
 ---------------------------------------------------------------------
    1          6             0       -0.155394    0.537308   -0.118082
    2          7             0       -0.018997   -0.221644    1.111866
    3          1             0        0.682286    1.419396   -0.162836
    4          1             0        0.357098    0.312774    1.815999
    5          8             0        0.050628   -0.244292   -1.068152
    6          1             0        0.274511   -1.177113    1.258248
 ---------------------------------------------------------------------

 Entering Gaussian System  

                          Input orientation:   
 ---------------------------------------------------------------------
 Center     Atomic     Atomic              Coordinates (Angstroms)
 Number     Number      Type              X           Y           Z 
 ---------------------------------------------------------------------
    1          6             0       -0.160310    0.535848   -0.124322
    2          7             0       -0.016803   -0.225643    1.108288
    3          1             0        0.696315    1.504480   -0.155606
    4          1             0        0.357038    0.314724    1.873941
    5          8             0        0.052169   -0.246083   -1.064985
    6          1             0        0.264129   -1.162735    1.266864
 ---------------------------------------------------------------------

 Entering Gaussian System  

                          Input orientation:   
 ---------------------------------------------------------------------
 Center     Atomic     Atomic              Coordinates (Angstroms)
 Number     Number      Type              X           Y           Z 
 ---------------------------------------------------------------------
    1          6             0       -0.159677    0.540923   -0.127740
    2          7             0       -0.015111   -0.229444    1.107598
    3          1             0        0.682794    1.553561   -0.144957
    4          1             0        0.356693    0.318056    1.923979
    5          8             0        0.052296   -0.250389   -1.065325
    6          1             0        0.244910   -1.154452    1.261901
 ---------------------------------------------------------------------

 Entering Gaussian System  

                          Input orientation:   
 ---------------------------------------------------------------------
 Center     Atomic     Atomic              Coordinates (Angstroms)
 Number     Number      Type              X           Y           Z 
 ---------------------------------------------------------------------
    1          6             0       -0.153605    0.552698   -0.127432
    2          7             0       -0.013287   -0.231597    1.110636
    3          1             0        0.645622    1.561378   -0.132815
    4          1             0        0.347462    0.311913    1.946916
    5          8             0        0.050730   -0.257140   -1.069322
    6          1             0        0.218379   -1.159344    1.244374
 ---------------------------------------------------------------------

 Entering Gaussian System  

                          Input orientation:   
 ---------------------------------------------------------------------
 Center     Atomic     Atomic              Coordinates (Angstroms)
 Number     Number      Type              X           Y           Z 
 ---------------------------------------------------------------------
    1          6             0       -0.143219    0.570883   -0.123230
    2          7             0       -0.011502   -0.231837    1.117480
    3          1             0        0.591834    1.531001   -0.121414
    4          1             0        0.329666    0.293319    1.936389
    5          8             0        0.047727   -0.266155   -1.076770
    6          1             0        0.188968   -1.180633    1.216579
 ---------------------------------------------------------------------

 Entering Gaussian System  

                          Input orientation:   
 ---------------------------------------------------------------------
 Center     Atomic     Atomic              Coordinates (Angstroms)
 Number     Number      Type              X           Y           Z 
 ---------------------------------------------------------------------
    1          6             0       -0.130372    0.592681   -0.115634
    2          7             0       -0.009942   -0.230645    1.126651
    3          1             0        0.528665    1.474362   -0.112946
    4          1             0        0.308346    0.269754    1.906955
    5          8             0        0.043932   -0.276472   -1.086827
    6          1             0        0.158802   -1.212966    1.179228
 ---------------------------------------------------------------------

 Entering Gaussian System  

                          Input orientation:   
 ---------------------------------------------------------------------
 Center     Atomic     Atomic              Coordinates (Angstroms)
 Number     Number      Type              X           Y           Z 
 ---------------------------------------------------------------------
    1          6             0       -0.116919    0.614672   -0.106037
    2          7             0       -0.009208   -0.229193    1.136196
    3          1             0        0.462076    1.410415   -0.107473
    4          1             0        0.293123    0.253014    1.883808
    5          8             0        0.040143   -0.287082   -1.098347
    6          1             0        0.130159   -1.246091    1.132759
 ---------------------------------------------------------------------

 Entering Gaussian System  

                          Input orientation:   
 ---------------------------------------------------------------------
 Center     Atomic     Atomic              Coordinates (Angstroms)
 Number     Number      Type              X           Y           Z 
 ---------------------------------------------------------------------
    1          6             0       -0.106487    0.633319   -0.094498
    2          7             0       -0.008834   -0.228671    1.144222
    3          1             0        0.407743    1.369530   -0.103795
    4          1             0        0.285978    0.248077    1.884504
    5          8             0        0.037394   -0.297544   -1.111081
    6          1             0        0.105699   -1.263649    1.081510
 ---------------------------------------------------------------------

 Entering Gaussian System  

                          Input orientation:   
 ---------------------------------------------------------------------
 Center     Atomic     Atomic              Coordinates (Angstroms)
 Number     Number      Type              X           Y           Z 
 ---------------------------------------------------------------------
    1          6             0       -0.101362    0.646029   -0.081283
    2          7             0       -0.008402   -0.229248    1.149544
    3          1             0        0.375314    1.373921   -0.100617
    4          1             0        0.287550    0.253245    1.914744
    5          8             0        0.036330   -0.307486   -1.124539
    6          1             0        0.086358   -1.258831    1.030281
 ---------------------------------------------------------------------

 Entering Gaussian System  

                          Input orientation:   
 ---------------------------------------------------------------------
 Center     Atomic     Atomic              Coordinates (Angstroms)
 Number     Number      Type              X           Y           Z 
 ---------------------------------------------------------------------
    1          6             0       -0.105610    0.649058   -0.067519
    2          7             0       -0.007168   -0.230750    1.152898
    3          1             0        0.385702    1.468559   -0.099874
    4          1             0        0.294426    0.261645    1.966530
    5          8             0        0.037879   -0.316524   -1.137929
    6          1             0        0.077985   -1.233596    0.979665
 ---------------------------------------------------------------------

 Entering Gaussian System  

                          Input orientation:   
 ---------------------------------------------------------------------
 Center     Atomic     Atomic              Coordinates (Angstroms)
 Number     Number      Type              X           Y           Z 
 ---------------------------------------------------------------------
    1          6             0       -0.116035    0.644018   -0.053807
    2          7             0       -0.004974   -0.231351    1.155858
    3          1             0        0.425813    1.627671   -0.102677
    4          1             0        0.299834    0.261525    2.021326
    5          8             0        0.040987   -0.324429   -1.150727
    6          1             0        0.076867   -1.198674    0.926277
 ---------------------------------------------------------------------

 Entering Gaussian System  

                          Input orientation:   
 ---------------------------------------------------------------------
 Center     Atomic     Atomic              Coordinates (Angstroms)
 Number     Number      Type              X           Y           Z 
 ---------------------------------------------------------------------
    1          6             0       -0.124253    0.638686   -0.040098
    2          7             0       -0.003139   -0.229837    1.158925
    3          1             0        0.457246    1.761013   -0.105621
    4          1             0        0.303563    0.243487    2.059621
    5          8             0        0.043430   -0.331323   -1.163068
    6          1             0        0.075374   -1.162026    0.880807
 ---------------------------------------------------------------------

 Entering Gaussian System  

                          Input orientation:   
 ---------------------------------------------------------------------
 Center     Atomic     Atomic              Coordinates (Angstroms)
 Number     Number      Type              X           Y           Z 
 ---------------------------------------------------------------------
    1          6             0       -0.128915    0.635335   -0.026501
    2          7             0       -0.001898   -0.225425    1.162206
    3          1             0        0.474949    1.846228   -0.106705
    4          1             0        0.304365    0.206863    2.074961
    5          8             0        0.044788   -0.337411   -1.174731
    6          1             0        0.073620   -1.135328    0.844052
 ---------------------------------------------------------------------

 Entering Gaussian System  

                          Input orientation:   
 ---------------------------------------------------------------------
 Center     Atomic     Atomic              Coordinates (Angstroms)
 Number     Number      Type              X           Y           Z 
 ---------------------------------------------------------------------
    1          6             0       -0.129937    0.634232   -0.012698
    2          7             0       -0.001449   -0.218029    1.165476
    3          1             0        0.477709    1.876600   -0.110342
    4          1             0        0.304597    0.157189    2.069336
    5          8             0        0.045119   -0.342366   -1.185583
    6          1             0        0.071313   -1.127004    0.815654
 ---------------------------------------------------------------------

 Entering Gaussian System  

                          Input orientation:   
 ---------------------------------------------------------------------
 Center     Atomic     Atomic              Coordinates (Angstroms)
 Number     Number      Type              X           Y           Z 
 ---------------------------------------------------------------------
    1          6             0       -0.127523    0.635676    0.000691
    2          7             0       -0.002026   -0.209048    1.168093
    3          1             0        0.465428    1.847993   -0.118778
    4          1             0        0.307445    0.106848    2.051248
    5          8             0        0.044584   -0.345753   -1.195061
    6          1             0        0.068510   -1.136292    0.796722
 ---------------------------------------------------------------------

 Entering Gaussian System  

                          Input orientation:   
 ---------------------------------------------------------------------
 Center     Atomic     Atomic              Coordinates (Angstroms)
 Number     Number      Type              X           Y           Z 
 ---------------------------------------------------------------------
    1          6             0       -0.122467    0.638490    0.013419
    2          7             0       -0.003574   -0.200215    1.169184
    3          1             0        0.438855    1.768308   -0.133940
    4          1             0        0.316900    0.069388    2.032509
    5          8             0        0.043571   -0.347012   -1.202924
    6          1             0        0.062990   -1.155424    0.788628
 ---------------------------------------------------------------------

 Entering Gaussian System  

                          Input orientation:   
 ---------------------------------------------------------------------
 Center     Atomic     Atomic              Coordinates (Angstroms)
 Number     Number      Type              X           Y           Z 
 ---------------------------------------------------------------------
    1          6             0       -0.116089    0.641662    0.024533
    2          7             0       -0.006008   -0.193404    1.168083
    3          1             0        0.402834    1.651380   -0.154611
    4          1             0        0.335353    0.051393    2.023188
    5          8             0        0.042523   -0.345900   -1.208851
    6          1             0        0.055086   -1.170600    0.795551
 ---------------------------------------------------------------------

 Entering Gaussian System  

                          Input orientation:   
 ---------------------------------------------------------------------
 Center     Atomic     Atomic              Coordinates (Angstroms)
 Number     Number      Type              X           Y           Z 
 ---------------------------------------------------------------------
    1          6             0       -0.108504    0.645484    0.034564
    2          7             0       -0.009583   -0.187411    1.163207
    3          1             0        0.358839    1.511119   -0.160948
    4          1             0        0.363662    0.032658    2.036910
    5          8             0        0.041463   -0.344482   -1.214411
    6          1             0        0.047005   -1.162949    0.824678
 ---------------------------------------------------------------------

 Entering Gaussian System  

                          Input orientation:   
 ---------------------------------------------------------------------
 Center     Atomic     Atomic              Coordinates (Angstroms)
 Number     Number      Type              X           Y           Z 
 ---------------------------------------------------------------------
    1          6             0       -0.102420    0.647068    0.042963
    2          7             0       -0.013745   -0.182269    1.155948
    3          1             0        0.321382    1.387264   -0.156358
    4          1             0        0.398420    0.009208    2.066230
    5          8             0        0.040966   -0.342628   -1.219592
    6          1             0        0.043053   -1.135398    0.873807
 ---------------------------------------------------------------------

 Entering Gaussian System  

                          Input orientation:   
 ---------------------------------------------------------------------
 Center     Atomic     Atomic              Coordinates (Angstroms)
 Number     Number      Type              X           Y           Z 
 ---------------------------------------------------------------------
    1          6             0       -0.103328    0.639504    0.050775
    2          7             0       -0.016740   -0.179544    1.150692
    3          1             0        0.318272    1.352420   -0.180610
    4          1             0        0.430104   -0.001841    2.077058
    5          8             0        0.042181   -0.337858   -1.223019
    6          1             0        0.047786   -1.112959    0.921547
 ---------------------------------------------------------------------

 Entering Gaussian System  

                          Input orientation:   
 ---------------------------------------------------------------------
 Center     Atomic     Atomic              Coordinates (Angstroms)
 Number     Number      Type              X           Y           Z 
 ---------------------------------------------------------------------
    1          6             0       -0.112084    0.622135    0.057477
    2          7             0       -0.018041   -0.179695    1.149349
    3          1             0        0.356189    1.416784   -0.243577
    4          1             0        0.452541    0.003973    2.058453
    5          8             0        0.045105   -0.329592   -1.224241
    6          1             0        0.063548   -1.105278    0.961308
 ---------------------------------------------------------------------

 Entering Gaussian System  

                          Input orientation:   
 ---------------------------------------------------------------------
 Center     Atomic     Atomic              Coordinates (Angstroms)
 Number     Number      Type              X           Y           Z 
 ---------------------------------------------------------------------
    1          6             0       -0.124641    0.599858    0.062488
    2          7             0       -0.018018   -0.180098    1.150950
    3          1             0        0.412802    1.532202   -0.317439
    4          1             0        0.468234    0.017349    2.023151
    5          8             0        0.048836   -0.319933   -1.224538
    6          1             0        0.081418   -1.116355    0.993186
 ---------------------------------------------------------------------

 Entering Gaussian System  

                          Input orientation:   
 ---------------------------------------------------------------------
 Center     Atomic     Atomic              Coordinates (Angstroms)
 Number     Number      Type              X           Y           Z 
 ---------------------------------------------------------------------
    1          6             0       -0.135086    0.579593    0.062609
    2          7             0       -0.017860   -0.179826    1.155356
    3          1             0        0.461458    1.627989   -0.368710
    4          1             0        0.478395    0.038917    1.979397
    5          8             0        0.051824   -0.310540   -1.224026
    6          1             0        0.097498   -1.145115    1.017395
 ---------------------------------------------------------------------

 Entering Gaussian System  

                          Input orientation:   
 ---------------------------------------------------------------------
 Center     Atomic     Atomic              Coordinates (Angstroms)
 Number     Number      Type              X           Y           Z 
 ---------------------------------------------------------------------
    1          6             0       -0.141939    0.563490    0.056711
    2          7             0       -0.018189   -0.179975    1.162221
    3          1             0        0.491132    1.680090   -0.390660
    4          1             0        0.490923    0.073150    1.936658
    5          8             0        0.053991   -0.301609   -1.222654
    6          1             0        0.107196   -1.179288    1.035197
 ---------------------------------------------------------------------

 Entering Gaussian System  

                          Input orientation:   
 ---------------------------------------------------------------------
 Center     Atomic     Atomic              Coordinates (Angstroms)
 Number     Number      Type              X           Y           Z 
 ---------------------------------------------------------------------
    1          6             0       -0.144826    0.552176    0.045023
    2          7             0       -0.019431   -0.181913    1.170571
    3          1             0        0.500315    1.685061   -0.381774
    4          1             0        0.508238    0.121203    1.907452
    5          8             0        0.055290   -0.293440   -1.220841
    6          1             0        0.111811   -1.200262    1.049963
 ---------------------------------------------------------------------

 Entering Gaussian System  

                          Input orientation:   
 ---------------------------------------------------------------------
 Center     Atomic     Atomic              Coordinates (Angstroms)
 Number     Number      Type              X           Y           Z 
 ---------------------------------------------------------------------
    1          6             0       -0.143344    0.545980    0.028067
    2          7             0       -0.021724   -0.186112    1.179690
    3          1             0        0.486593    1.641945   -0.343122
    4          1             0        0.531579    0.180126    1.898872
    5          8             0        0.055660   -0.286260   -1.218918
    6          1             0        0.110625   -1.197895    1.064705
 ---------------------------------------------------------------------

 Entering Gaussian System  

                          Input orientation:   
 ---------------------------------------------------------------------
 Center     Atomic     Atomic              Coordinates (Angstroms)
 Number     Number      Type              X           Y           Z 
 ---------------------------------------------------------------------
    1          6             0       -0.137477    0.544199    0.007265
    2          7             0       -0.024952   -0.191871    1.189232
    3          1             0        0.453380    1.559654   -0.280976
    4          1             0        0.555873    0.243642    1.909106
    5          8             0        0.054875   -0.280127   -1.217230
    6          1             0        0.107046   -1.175237    1.080814
 ---------------------------------------------------------------------

 Entering Gaussian System  

                          Input orientation:   
 ---------------------------------------------------------------------
 Center     Atomic     Atomic              Coordinates (Angstroms)
 Number     Number      Type              X           Y           Z 
 ---------------------------------------------------------------------
    1          6             0       -0.128166    0.545460   -0.016612
    2          7             0       -0.028454   -0.196873    1.200970
    3          1             0        0.405759    1.444870   -0.196002
    4          1             0        0.576466    0.300799    1.911530
    5          8             0        0.053050   -0.274790   -1.215975
    6          1             0        0.100828   -1.147859    1.094905
 ---------------------------------------------------------------------

 Entering Gaussian System  

                          Input orientation:   
 ---------------------------------------------------------------------
 Center     Atomic     Atomic              Coordinates (Angstroms)
 Number     Number      Type              X           Y           Z 
 ---------------------------------------------------------------------
    1          6             0       -0.117318    0.546988   -0.041872
    2          7             0       -0.031590   -0.198821    1.215408
    3          1             0        0.353291    1.314875   -0.091747
    4          1             0        0.589953    0.345383    1.888196
    5          8             0        0.050584   -0.269787   -1.215375
    6          1             0        0.093329   -1.133039    1.104847
 ---------------------------------------------------------------------

 Entering Gaussian System  

                          Input orientation:   
 ---------------------------------------------------------------------
 Center     Atomic     Atomic              Coordinates (Angstroms)
 Number     Number      Type              X           Y           Z 
 ---------------------------------------------------------------------
    1          6             0       -0.111124    0.541249   -0.065745
    2          7             0       -0.033385   -0.197064    1.228779
    3          1             0        0.326704    1.253783    0.013998
    4          1             0        0.593632    0.377497    1.863324
    5          8             0        0.048982   -0.264593   -1.215031
    6          1             0        0.092810   -1.142570    1.117187
 ---------------------------------------------------------------------

 Entering Gaussian System  

                          Input orientation:   
 ---------------------------------------------------------------------
 Center     Atomic     Atomic              Coordinates (Angstroms)
 Number     Number      Type              X           Y           Z 
 ---------------------------------------------------------------------
    1          6             0       -0.118595    0.521047   -0.091013
    2          7             0       -0.032821   -0.192638    1.243369
    3          1             0        0.372954    1.341665    0.124623
    4          1             0        0.583851    0.391410    1.824745
    5          8             0        0.050381   -0.258384   -1.214281
    6          1             0        0.115302   -1.163728    1.131612
 ---------------------------------------------------------------------

 Entering Gaussian System  

                          Input orientation:   
 ---------------------------------------------------------------------
 Center     Atomic     Atomic              Coordinates (Angstroms)
 Number     Number      Type              X           Y           Z 
 ---------------------------------------------------------------------
    1          6             0       -0.129154    0.495900   -0.115331
    2          7             0       -0.031618   -0.186787    1.256948
    3          1             0        0.436416    1.472696    0.232500
    4          1             0        0.569358    0.393745    1.784965
    5          8             0        0.052397   -0.251686   -1.213433
    6          1             0        0.143428   -1.185074    1.151118
 ---------------------------------------------------------------------

 Entering Gaussian System  

                          Input orientation:   
 ---------------------------------------------------------------------
 Center     Atomic     Atomic              Coordinates (Angstroms)
 Number     Number      Type              X           Y           Z 
 ---------------------------------------------------------------------
    1          6             0       -0.136668    0.473860   -0.134917
    2          7             0       -0.031441   -0.181767    1.268573
    3          1             0        0.483963    1.572764    0.309754
    4          1             0        0.561132    0.388938    1.753661
    5          8             0        0.053814   -0.244767   -1.213561
    6          1             0        0.168690   -1.197309    1.179070
 ---------------------------------------------------------------------

 Entering Gaussian System  

                          Input orientation:   
 ---------------------------------------------------------------------
 Center     Atomic     Atomic              Coordinates (Angstroms)
 Number     Number      Type              X           Y           Z 
 ---------------------------------------------------------------------
    1          6             0       -0.140224    0.457162   -0.148091
    2          7             0       -0.033063   -0.179164    1.277727
    3          1             0        0.508304    1.618645    0.345693
    4          1             0        0.567489    0.387185    1.739796
    5          8             0        0.054680   -0.237504   -1.215378
    6          1             0        0.189199   -1.193936    1.215615
 ---------------------------------------------------------------------

 Entering Gaussian System  

                          Input orientation:   
 ---------------------------------------------------------------------
 Center     Atomic     Atomic              Coordinates (Angstroms)
 Number     Number      Type              X           Y           Z 
 ---------------------------------------------------------------------
    1          6             0       -0.138588    0.447365   -0.154019
    2          7             0       -0.036683   -0.179331    1.284350
    3          1             0        0.502419    1.589771    0.335868
    4          1             0        0.590086    0.395298    1.745964
    5          8             0        0.054749   -0.229810   -1.219113
    6          1             0        0.202338   -1.176260    1.257130
 ---------------------------------------------------------------------

 Entering Gaussian System  

                          Input orientation:   
 ---------------------------------------------------------------------
 Center     Atomic     Atomic              Coordinates (Angstroms)
 Number     Number      Type              X           Y           Z 
 ---------------------------------------------------------------------
    1          6             0       -0.132825    0.443736   -0.153748
    2          7             0       -0.042166   -0.181414    1.289625
    3          1             0        0.471595    1.490689    0.279406
    4          1             0        0.628673    0.411443    1.766752
    5          8             0        0.054283   -0.221416   -1.224274
    6          1             0        0.209651   -1.154390    1.298173
 ---------------------------------------------------------------------

 Entering Gaussian System  

                          Input orientation:   
 ---------------------------------------------------------------------
 Center     Atomic     Atomic              Coordinates (Angstroms)
 Number     Number      Type              X           Y           Z 
 ---------------------------------------------------------------------
    1          6             0       -0.124526    0.443483   -0.147646
    2          7             0       -0.047759   -0.183304    1.294184
    3          1             0        0.427498    1.356179    0.187686
    4          1             0        0.667079    0.422773    1.791962
    5          8             0        0.053189   -0.213000   -1.231031
    6          1             0        0.211715   -1.135526    1.335875
 ---------------------------------------------------------------------

 Entering Gaussian System  

                          Input orientation:   
 ---------------------------------------------------------------------
 Center     Atomic     Atomic              Coordinates (Angstroms)
 Number     Number      Type              X           Y           Z 
 ---------------------------------------------------------------------
    1          6             0       -0.115001    0.444054   -0.136910
    2          7             0       -0.051947   -0.183297    1.298858
    3          1             0        0.381025    1.221305    0.075134
    4          1             0        0.689886    0.416114    1.812211
    5          8             0        0.051300   -0.205241   -1.239609
    6          1             0        0.210155   -1.124061    1.371432
 ---------------------------------------------------------------------

 Entering Gaussian System  

                          Input orientation:   
 ---------------------------------------------------------------------
 Center     Atomic     Atomic              Coordinates (Angstroms)
 Number     Number      Type              X           Y           Z 
 ---------------------------------------------------------------------
    1          6             0       -0.108178    0.443491   -0.126586
    2          7             0       -0.054241   -0.182018    1.305300
    3          1             0        0.355326    1.126161   -0.036246
    4          1             0        0.691949    0.394199    1.819620
    5          8             0        0.049385   -0.198546   -1.248483
    6          1             0        0.214777   -1.124332    1.403700
 ---------------------------------------------------------------------

 Entering Gaussian System  

                          Input orientation:   
 ---------------------------------------------------------------------
 Center     Atomic     Atomic              Coordinates (Angstroms)
 Number     Number      Type              X           Y           Z 
 ---------------------------------------------------------------------
    1          6             0       -0.109548    0.437554   -0.117766
    2          7             0       -0.053931   -0.179982    1.312978
    3          1             0        0.378323    1.126858   -0.129017
    4          1             0        0.671210    0.364871    1.815019
    5          8             0        0.048770   -0.193403   -1.257553
    6          1             0        0.234237   -1.134884    1.433238
 ---------------------------------------------------------------------

 Entering Gaussian System  

                          Input orientation:   
 ---------------------------------------------------------------------
 Center     Atomic     Atomic              Coordinates (Angstroms)
 Number     Number      Type              X           Y           Z 
 ---------------------------------------------------------------------
    1          6             0       -0.127549    0.417902   -0.104696
    2          7             0       -0.050084   -0.177306    1.320550
    3          1             0        0.489256    1.279609   -0.250920
    4          1             0        0.630081    0.322129    1.808213
    5          8             0        0.051731   -0.186885   -1.268591
    6          1             0        0.278375   -1.151361    1.476158
 ---------------------------------------------------------------------

 Entering Gaussian System  

                          Input orientation:   
 ---------------------------------------------------------------------
 Center     Atomic     Atomic              Coordinates (Angstroms)
 Number     Number      Type              X           Y           Z 
 ---------------------------------------------------------------------
    1          6             0       -0.147963    0.396609   -0.089006
    2          7             0       -0.045643   -0.176139    1.327509
    3          1             0        0.608252    1.451186   -0.390919
    4          1             0        0.591039    0.286641    1.811521
    5          8             0        0.055466   -0.179791   -1.280871
    6          1             0        0.320571   -1.162542    1.524051
 ---------------------------------------------------------------------

 Entering Gaussian System  

                          Input orientation:   
 ---------------------------------------------------------------------
 Center     Atomic     Atomic              Coordinates (Angstroms)
 Number     Number      Type              X           Y           Z 
 ---------------------------------------------------------------------
    1          6             0       -0.165062    0.380119   -0.073212
    2          7             0       -0.042366   -0.178028    1.332827
    3          1             0        0.693668    1.585700   -0.507206
    4          1             0        0.578699    0.286959    1.837067
    5          8             0        0.059493   -0.174529   -1.293700
    6          1             0        0.341766   -1.158137    1.556279
 ---------------------------------------------------------------------

 Entering Gaussian System  

                          Input orientation:   
 ---------------------------------------------------------------------
 Center     Atomic     Atomic              Coordinates (Angstroms)
 Number     Number      Type              X           Y           Z 
 ---------------------------------------------------------------------
    1          6             0       -0.180834    0.365970   -0.058095
    2          7             0       -0.040538   -0.182821    1.336452
    3          1             0        0.756765    1.692143   -0.607154
    4          1             0        0.594884    0.323375    1.884179
    5          8             0        0.064322   -0.169876   -1.305876
    6          1             0        0.348447   -1.139637    1.571850
 ---------------------------------------------------------------------

 Entering Gaussian System  

                          Input orientation:   
 ---------------------------------------------------------------------
 Center     Atomic     Atomic              Coordinates (Angstroms)
 Number     Number      Type              X           Y           Z 
 ---------------------------------------------------------------------
    1          6             0       -0.197043    0.347737   -0.042194
    2          7             0       -0.038224   -0.187913    1.338288
    3          1             0        0.815143    1.802290   -0.707372
    4          1             0        0.616107    0.377983    1.934469
    5          8             0        0.069579   -0.163889   -1.316074
    6          1             0        0.346465   -1.111390    1.568597
 ---------------------------------------------------------------------

 Entering Gaussian System  

                          Input orientation:   
 ---------------------------------------------------------------------
 Center     Atomic     Atomic              Coordinates (Angstroms)
 Number     Number      Type              X           Y           Z 
 ---------------------------------------------------------------------
    1          6             0       -0.215094    0.320888   -0.023044
    2          7             0       -0.033879   -0.190968    1.338784
    3          1             0        0.886752    1.938167   -0.841561
    4          1             0        0.618899    0.427051    1.966594
    5          8             0        0.074742   -0.154393   -1.323357
    6          1             0        0.344833   -1.084667    1.551139
 ---------------------------------------------------------------------

 Entering Gaussian System  

                          Input orientation:   
 ---------------------------------------------------------------------
 Center     Atomic     Atomic              Coordinates (Angstroms)
 Number     Number      Type              X           Y           Z 
 ---------------------------------------------------------------------
    1          6             0       -0.235865    0.286332    0.002628
    2          7             0       -0.026659   -0.191813    1.336560
    3          1             0        0.979895    2.110363   -1.029351
    4          1             0        0.592992    0.461245    1.968449
    5          8             0        0.079671   -0.141537   -1.327675
    6          1             0        0.346418   -1.071595    1.530562
 ---------------------------------------------------------------------

 Entering Gaussian System  

                          Input orientation:   
 ---------------------------------------------------------------------
 Center     Atomic     Atomic              Coordinates (Angstroms)
 Number     Number      Type              X           Y           Z 
 ---------------------------------------------------------------------
    1          6             0       -0.255790    0.253496    0.026784
    2          7             0       -0.017706   -0.191320    1.334343
    3          1             0        1.075140    2.279311   -1.214184
    4          1             0        0.546240    0.484533    1.950074
    5          8             0        0.083702   -0.129149   -1.329610
    6          1             0        0.346747   -1.076048    1.507397
 ---------------------------------------------------------------------

 Entering Gaussian System  

                          Input orientation:   
 ---------------------------------------------------------------------
 Center     Atomic     Atomic              Coordinates (Angstroms)
 Number     Number      Type              X           Y           Z 
 ---------------------------------------------------------------------
    1          6             0       -0.274124    0.222433    0.049178
    2          7             0       -0.007720   -0.189458    1.331609
    3          1             0        1.169214    2.447190   -1.393067
    4          1             0        0.482731    0.496782    1.918374
    5          8             0        0.086732   -0.117417   -1.329389
    6          1             0        0.347521   -1.098118    1.485568
 ---------------------------------------------------------------------

 Entering Gaussian System  

                          Input orientation:   
 ---------------------------------------------------------------------
 Center     Atomic     Atomic              Coordinates (Angstroms)
 Number     Number      Type              X           Y           Z 
 ---------------------------------------------------------------------
    1          6             0       -0.292340    0.191221    0.070559
    2          7             0        0.002761   -0.186678    1.328135
    3          1             0        1.264282    2.614773   -1.571296
    4          1             0        0.413625    0.503208    1.879394
    5          8             0        0.089552   -0.105478   -1.327306
    6          1             0        0.347935   -1.128320    1.463162
 ---------------------------------------------------------------------

 Entering Gaussian System  

                          Input orientation:   
 ---------------------------------------------------------------------
 Center     Atomic     Atomic              Coordinates (Angstroms)
 Number     Number      Type              X           Y           Z 
 ---------------------------------------------------------------------
    1          6             0       -0.311206    0.159419    0.089551
    2          7             0        0.012990   -0.184946    1.323948
    3          1             0        1.358120    2.782222   -1.749183
    4          1             0        0.352177    0.515561    1.849208
    5          8             0        0.092849   -0.092801   -1.323413
    6          1             0        0.345617   -1.154439    1.441277
 ---------------------------------------------------------------------

 Entering Gaussian System  

                          Input orientation:   
 ---------------------------------------------------------------------
 Center     Atomic     Atomic              Coordinates (Angstroms)
 Number     Number      Type              X           Y           Z 
 ---------------------------------------------------------------------
    1          6             0       -0.325120    0.137866    0.101333
    2          7             0        0.019814   -0.186160    1.319975
    3          1             0        1.423924    2.901881   -1.876195
    4          1             0        0.316198    0.536221    1.840256
    5          8             0        0.095603   -0.083682   -1.319435
    6          1             0        0.342875   -1.165820    1.428887
 ---------------------------------------------------------------------

 Entering Gaussian System  

                          Input orientation:   
 ---------------------------------------------------------------------
 Center     Atomic     Atomic              Coordinates (Angstroms)
 Number     Number      Type              X           Y           Z 
 ---------------------------------------------------------------------
    1          6             0       -0.325120    0.137866    0.101333
    2          7             0        0.019814   -0.186160    1.319975
    3          1             0        1.423924    2.901881   -1.876195
    4          1             0        0.316198    0.536221    1.840256
    5          8             0        0.095603   -0.083682   -1.319435
    6          1             0        0.342875   -1.165820    1.428887
 ---------------------------------------------------------------------
