
 Entering Gaussian System  

                          Input orientation:   
 ---------------------------------------------------------------------
 Center     Atomic     Atomic              Coordinates (Angstroms)
 Number     Number      Type              X           Y           Z 
 ---------------------------------------------------------------------
    1          6             0        0.000000    0.401721   -0.096031
    2          7             0        0.000000   -0.162504    1.145371
    3          1             0        0.000000    1.541283   -0.009698
    4          1             0        0.000000    0.374796    1.979555
    5          8             0        0.000000   -0.207339   -1.131411
    6          1             0        0.000000   -1.153754    1.217289
 ---------------------------------------------------------------------

 Entering Gaussian System  

                          Input orientation:   
 ---------------------------------------------------------------------
 Center     Atomic     Atomic              Coordinates (Angstroms)
 Number     Number      Type              X           Y           Z 
 ---------------------------------------------------------------------
    1          6             0       -0.019138    0.408806   -0.092870
    2          7             0        0.011629   -0.164260    1.145165
    3          1             0        0.073311    1.541094   -0.010486
    4          1             0       -0.045208    0.372737    1.982512
    5          8             0        0.004381   -0.210980   -1.133600
    6          1             0       -0.031439   -1.153737    1.215060
 ---------------------------------------------------------------------

 Entering Gaussian System  

                          Input orientation:   
 ---------------------------------------------------------------------
 Center     Atomic     Atomic              Coordinates (Angstroms)
 Number     Number      Type              X           Y           Z 
 ---------------------------------------------------------------------
    1          6             0       -0.019194    0.415395   -0.083217
    2          7             0        0.014709   -0.166123    1.140991
    3          1             0        0.079169    1.565454   -0.004562
    4          1             0       -0.074373    0.385319    1.971614
    5          8             0        0.003531   -0.215875   -1.137577
    6          1             0       -0.036893   -1.165597    1.226144
 ---------------------------------------------------------------------

 Entering Gaussian System  

                          Input orientation:   
 ---------------------------------------------------------------------
 Center     Atomic     Atomic              Coordinates (Angstroms)
 Number     Number      Type              X           Y           Z 
 ---------------------------------------------------------------------
    1          6             0       -0.016606    0.429276   -0.071004
    2          7             0        0.017151   -0.169941    1.139585
    3          1             0        0.061432    1.599639    0.002919
    4          1             0       -0.088193    0.390785    1.962063
    5          8             0        0.002679   -0.224952   -1.145923
    6          1             0       -0.056666   -1.173524    1.234687
 ---------------------------------------------------------------------

 Entering Gaussian System  

                          Input orientation:   
 ---------------------------------------------------------------------
 Center     Atomic     Atomic              Coordinates (Angstroms)
 Number     Number      Type              X           Y           Z 
 ---------------------------------------------------------------------
    1          6             0       -0.028767    0.444596   -0.052063
    2          7             0        0.017424   -0.174725    1.140192
    3          1             0        0.114104    1.606692   -0.018682
    4          1             0       -0.072243    0.387998    1.938754
    5          8             0        0.006371   -0.233616   -1.158462
    6          1             0       -0.042706   -1.156360    1.244484
 ---------------------------------------------------------------------

 Entering Gaussian System  

                          Input orientation:   
 ---------------------------------------------------------------------
 Center     Atomic     Atomic              Coordinates (Angstroms)
 Number     Number      Type              X           Y           Z 
 ---------------------------------------------------------------------
    1          6             0       -0.041369    0.462173   -0.029944
    2          7             0        0.023883   -0.179373    1.144428
    3          1             0        0.156555    1.578828   -0.058544
    4          1             0       -0.086258    0.391865    1.937654
    5          8             0        0.009803   -0.242129   -1.176777
    6          1             0       -0.065305   -1.142083    1.253708
 ---------------------------------------------------------------------

 Entering Gaussian System  

                          Input orientation:   
 ---------------------------------------------------------------------
 Center     Atomic     Atomic              Coordinates (Angstroms)
 Number     Number      Type              X           Y           Z 
 ---------------------------------------------------------------------
    1          6             0       -0.048476    0.481447   -0.009206
    2          7             0        0.024731   -0.183062    1.149125
    3          1             0        0.177257    1.549580   -0.065429
    4          1             0       -0.069859    0.402598    1.937116
    5          8             0        0.012419   -0.252429   -1.196720
    6          1             0       -0.070971   -1.138487    1.265298
 ---------------------------------------------------------------------

 Entering Gaussian System  

                          Input orientation:   
 ---------------------------------------------------------------------
 Center     Atomic     Atomic              Coordinates (Angstroms)
 Number     Number      Type              X           Y           Z 
 ---------------------------------------------------------------------
    1          6             0       -0.062138    0.500122    0.001274
    2          7             0        0.042295   -0.188381    1.163254
    3          1             0        0.219045    1.503603   -0.107224
    4          1             0       -0.157139    0.405155    1.947316
    5          8             0        0.014516   -0.258665   -1.215887
    6          1             0       -0.140503   -1.144715    1.279909
 ---------------------------------------------------------------------

 Entering Gaussian System  

                          Input orientation:   
 ---------------------------------------------------------------------
 Center     Atomic     Atomic              Coordinates (Angstroms)
 Number     Number      Type              X           Y           Z 
 ---------------------------------------------------------------------
    1          6             0       -0.077141    0.519135    0.008503
    2          7             0        0.056939   -0.195248    1.173006
    3          1             0        0.273036    1.521000   -0.149000
    4          1             0       -0.228792    0.393953    1.948554
    5          8             0        0.017173   -0.266797   -1.227539
    6          1             0       -0.190129   -1.152963    1.283717
 ---------------------------------------------------------------------

 Entering Gaussian System  

                          Input orientation:   
 ---------------------------------------------------------------------
 Center     Atomic     Atomic              Coordinates (Angstroms)
 Number     Number      Type              X           Y           Z 
 ---------------------------------------------------------------------
    1          6             0       -0.090240    0.531209    0.016645
    2          7             0        0.062778   -0.199385    1.186212
    3          1             0        0.312631    1.534261   -0.167428
    4          1             0       -0.231525    0.390084    1.947256
    5          8             0        0.021157   -0.272964   -1.244535
    6          1             0       -0.215312   -1.150857    1.292683
 ---------------------------------------------------------------------

 Entering Gaussian System  

                          Input orientation:   
 ---------------------------------------------------------------------
 Center     Atomic     Atomic              Coordinates (Angstroms)
 Number     Number      Type              X           Y           Z 
 ---------------------------------------------------------------------
    1          6             0       -0.108546    0.559592    0.024100
    2          7             0        0.060129   -0.204412    1.190539
    3          1             0        0.399486    1.576862   -0.202639
    4          1             0       -0.194233    0.339639    1.974702
    5          8             0        0.026821   -0.288736   -1.250304
    6          1             0       -0.174205   -1.160979    1.243059
 ---------------------------------------------------------------------

 Entering Gaussian System  

                          Input orientation:   
 ---------------------------------------------------------------------
 Center     Atomic     Atomic              Coordinates (Angstroms)
 Number     Number      Type              X           Y           Z 
 ---------------------------------------------------------------------
    1          6             0       -0.127076    0.592115    0.029208
    2          7             0        0.080850   -0.210473    1.193162
    3          1             0        0.465424    1.579661   -0.201988
    4          1             0       -0.301079    0.300730    1.999838
    5          8             0        0.029679   -0.305777   -1.255073
    6          1             0       -0.246380   -1.157669    1.195673
 ---------------------------------------------------------------------

 Entering Gaussian System  

                          Input orientation:   
 ---------------------------------------------------------------------
 Center     Atomic     Atomic              Coordinates (Angstroms)
 Number     Number      Type              X           Y           Z 
 ---------------------------------------------------------------------
    1          6             0       -0.139942    0.619654    0.034557
    2          7             0        0.093459   -0.215260    1.196942
    3          1             0        0.503941    1.549522   -0.162318
    4          1             0       -0.353539    0.279799    2.004079
    5          8             0        0.032397   -0.320405   -1.263352
    6          1             0       -0.297778   -1.136018    1.166912
 ---------------------------------------------------------------------

 Entering Gaussian System  

                          Input orientation:   
 ---------------------------------------------------------------------
 Center     Atomic     Atomic              Coordinates (Angstroms)
 Number     Number      Type              X           Y           Z 
 ---------------------------------------------------------------------
    1          6             0       -0.147267    0.637341    0.040418
    2          7             0        0.096779   -0.215359    1.200976
    3          1             0        0.512585    1.516026   -0.085392
    4          1             0       -0.339261    0.274934    2.005977
    5          8             0        0.035391   -0.332194   -1.274949
    6          1             0       -0.327057   -1.119929    1.146290
 ---------------------------------------------------------------------

 Entering Gaussian System  

                          Input orientation:   
 ---------------------------------------------------------------------
 Center     Atomic     Atomic              Coordinates (Angstroms)
 Number     Number      Type              X           Y           Z 
 ---------------------------------------------------------------------
    1          6             0       -0.155498    0.652689    0.042842
    2          7             0        0.101282   -0.214165    1.206228
    3          1             0        0.528709    1.494366   -0.021565
    4          1             0       -0.336560    0.257636    2.012522
    5          8             0        0.038250   -0.342748   -1.283855
    6          1             0       -0.355794   -1.112914    1.115431
 ---------------------------------------------------------------------

 Entering Gaussian System  

                          Input orientation:   
 ---------------------------------------------------------------------
 Center     Atomic     Atomic              Coordinates (Angstroms)
 Number     Number      Type              X           Y           Z 
 ---------------------------------------------------------------------
    1          6             0       -0.163335    0.665654    0.042415
    2          7             0        0.106016   -0.212780    1.212086
    3          1             0        0.548320    1.501102    0.024740
    4          1             0       -0.342364    0.227169    2.015588
    5          8             0        0.040648   -0.352289   -1.289333
    6          1             0       -0.380130   -1.111454    1.076715
 ---------------------------------------------------------------------

 Entering Gaussian System  

                          Input orientation:   
 ---------------------------------------------------------------------
 Center     Atomic     Atomic              Coordinates (Angstroms)
 Number     Number      Type              X           Y           Z 
 ---------------------------------------------------------------------
    1          6             0       -0.169537    0.673326    0.040805
    2          7             0        0.110019   -0.211262    1.217974
    3          1             0        0.565690    1.544012    0.043413
    4          1             0       -0.351047    0.186919    2.017563
    5          8             0        0.042394   -0.359535   -1.291951
    6          1             0       -0.398310   -1.111588    1.034991
 ---------------------------------------------------------------------

 Entering Gaussian System  

                          Input orientation:   
 ---------------------------------------------------------------------
 Center     Atomic     Atomic              Coordinates (Angstroms)
 Number     Number      Type              X           Y           Z 
 ---------------------------------------------------------------------
    1          6             0       -0.173276    0.678470    0.038079
    2          7             0        0.111922   -0.210545    1.222671
    3          1             0        0.579410    1.594412    0.043445
    4          1             0       -0.356462    0.142739    2.014155
    5          8             0        0.043350   -0.364775   -1.291313
    6          1             0       -0.403710   -1.105875    0.995455
 ---------------------------------------------------------------------

 Entering Gaussian System  

                          Input orientation:   
 ---------------------------------------------------------------------
 Center     Atomic     Atomic              Coordinates (Angstroms)
 Number     Number      Type              X           Y           Z 
 ---------------------------------------------------------------------
    1          6             0       -0.171990    0.683494    0.035160
    2          7             0        0.111941   -0.210981    1.224339
    3          1             0        0.574007    1.617456    0.045688
    4          1             0       -0.358702    0.108772    2.006907
    5          8             0        0.042941   -0.368563   -1.288316
    6          1             0       -0.405183   -1.088628    0.964492
 ---------------------------------------------------------------------

 Entering Gaussian System  

                          Input orientation:   
 ---------------------------------------------------------------------
 Center     Atomic     Atomic              Coordinates (Angstroms)
 Number     Number      Type              X           Y           Z 
 ---------------------------------------------------------------------
    1          6             0       -0.165697    0.687990    0.032945
    2          7             0        0.110635   -0.211706    1.222177
    3          1             0        0.545789    1.601227    0.056784
    4          1             0       -0.357289    0.092681    2.002982
    5          8             0        0.041291   -0.370663   -1.284106
    6          1             0       -0.409026   -1.066474    0.946940
 ---------------------------------------------------------------------

 Entering Gaussian System  

                          Input orientation:   
 ---------------------------------------------------------------------
 Center     Atomic     Atomic              Coordinates (Angstroms)
 Number     Number      Type              X           Y           Z 
 ---------------------------------------------------------------------
    1          6             0       -0.156097    0.690811    0.031364
    2          7             0        0.108724   -0.211831    1.216115
    3          1             0        0.505043    1.561900    0.069268
    4          1             0       -0.358501    0.090166    2.006575
    5          8             0        0.038628   -0.371002   -1.278203
    6          1             0       -0.412645   -1.051106    0.940261
 ---------------------------------------------------------------------

 Entering Gaussian System  

                          Input orientation:   
 ---------------------------------------------------------------------
 Center     Atomic     Atomic              Coordinates (Angstroms)
 Number     Number      Type              X           Y           Z 
 ---------------------------------------------------------------------
    1          6             0       -0.144455    0.691863    0.030979
    2          7             0        0.107166   -0.211585    1.206617
    3          1             0        0.459398    1.523074    0.073318
    4          1             0       -0.370041    0.094983    2.016083
    5          8             0        0.035047   -0.370130   -1.270574
    6          1             0       -0.415746   -1.046879    0.942163
 ---------------------------------------------------------------------

 Entering Gaussian System  

                          Input orientation:   
 ---------------------------------------------------------------------
 Center     Atomic     Atomic              Coordinates (Angstroms)
 Number     Number      Type              X           Y           Z 
 ---------------------------------------------------------------------
    1          6             0       -0.133007    0.689787    0.031760
    2          7             0        0.106182   -0.211155    1.194954
    3          1             0        0.423430    1.514220    0.055393
    4          1             0       -0.396103    0.096074    2.022757
    5          8             0        0.030917   -0.367975   -1.260743
    6          1             0       -0.410988   -1.054571    0.950138
 ---------------------------------------------------------------------

 Entering Gaussian System  

                          Input orientation:   
 ---------------------------------------------------------------------
 Center     Atomic     Atomic              Coordinates (Angstroms)
 Number     Number      Type              X           Y           Z 
 ---------------------------------------------------------------------
    1          6             0       -0.122291    0.684874    0.033491
    2          7             0        0.105214   -0.211700    1.182661
    3          1             0        0.401716    1.554270    0.012182
    4          1             0       -0.434510    0.085866    2.011381
    5          8             0        0.026370   -0.365002   -1.248708
    6          1             0       -0.393065   -1.065489    0.963903
 ---------------------------------------------------------------------

 Entering Gaussian System  

                          Input orientation:   
 ---------------------------------------------------------------------
 Center     Atomic     Atomic              Coordinates (Angstroms)
 Number     Number      Type              X           Y           Z 
 ---------------------------------------------------------------------
    1          6             0       -0.109907    0.680620    0.035618
    2          7             0        0.103674   -0.213951    1.170639
    3          1             0        0.377990    1.618168   -0.033198
    4          1             0       -0.477465    0.070063    1.976342
    5          8             0        0.021112   -0.362620   -1.235953
    6          1             0       -0.369228   -1.069412    0.983561
 ---------------------------------------------------------------------

 Entering Gaussian System  

                          Input orientation:   
 ---------------------------------------------------------------------
 Center     Atomic     Atomic              Coordinates (Angstroms)
 Number     Number      Type              X           Y           Z 
 ---------------------------------------------------------------------
    1          6             0       -0.093946    0.681873    0.036228
    2          7             0        0.101967   -0.216472    1.159261
    3          1             0        0.333649    1.634528   -0.038056
    4          1             0       -0.518325    0.064586    1.940177
    5          8             0        0.015078   -0.362432   -1.224938
    6          1             0       -0.354858   -1.063177    1.000585
 ---------------------------------------------------------------------

 Entering Gaussian System  

                          Input orientation:   
 ---------------------------------------------------------------------
 Center     Atomic     Atomic              Coordinates (Angstroms)
 Number     Number      Type              X           Y           Z 
 ---------------------------------------------------------------------
    1          6             0       -0.076297    0.687379    0.033916
    2          7             0        0.100268   -0.217751    1.148852
    3          1             0        0.273594    1.586996    0.004877
    4          1             0       -0.551647    0.076901    1.919107
    5          8             0        0.009006   -0.363807   -1.215829
    6          1             0       -0.351938   -1.053973    1.006340
 ---------------------------------------------------------------------

 Entering Gaussian System  

                          Input orientation:   
 ---------------------------------------------------------------------
 Center     Atomic     Atomic              Coordinates (Angstroms)
 Number     Number      Type              X           Y           Z 
 ---------------------------------------------------------------------
    1          6             0       -0.060794    0.689790    0.028998
    2          7             0        0.098106   -0.217093    1.139476
    3          1             0        0.217834    1.550151    0.068267
    4          1             0       -0.572410    0.098913    1.904382
    5          8             0        0.003964   -0.365046   -1.206390
    6          1             0       -0.350152   -1.057359    0.996763
 ---------------------------------------------------------------------

 Entering Gaussian System  

                          Input orientation:   
 ---------------------------------------------------------------------
 Center     Atomic     Atomic              Coordinates (Angstroms)
 Number     Number      Type              X           Y           Z 
 ---------------------------------------------------------------------
    1          6             0       -0.053538    0.677600    0.023042
    2          7             0        0.094879   -0.212876    1.131667
    3          1             0        0.199163    1.621085    0.107708
    4          1             0       -0.574858    0.116738    1.879627
    5          8             0        0.001569   -0.362939   -1.194137
    6          1             0       -0.332606   -1.092915    0.967085
 ---------------------------------------------------------------------

 Entering Gaussian System  

                          Input orientation:   
 ---------------------------------------------------------------------
 Center     Atomic     Atomic              Coordinates (Angstroms)
 Number     Number      Type              X           Y           Z 
 ---------------------------------------------------------------------
    1          6             0       -0.049050    0.653561    0.016121
    2          7             0        0.089153   -0.205877    1.124750
    3          1             0        0.193658    1.751568    0.135901
    4          1             0       -0.556382    0.134007    1.842706
    5          8             0        0.000400   -0.357191   -1.180023
    6          1             0       -0.300797   -1.142705    0.930367
 ---------------------------------------------------------------------

 Entering Gaussian System  

                          Input orientation:   
 ---------------------------------------------------------------------
 Center     Atomic     Atomic              Coordinates (Angstroms)
 Number     Number      Type              X           Y           Z 
 ---------------------------------------------------------------------
    1          6             0       -0.034459    0.626580    0.006436
    2          7             0        0.079118   -0.197387    1.116701
    3          1             0        0.143811    1.810162    0.185450
    4          1             0       -0.520635    0.158190    1.811457
    5          8             0       -0.003082   -0.347936   -1.165386
    6          1             0       -0.265645   -1.168867    0.907006
 ---------------------------------------------------------------------

 Entering Gaussian System  

                          Input orientation:   
 ---------------------------------------------------------------------
 Center     Atomic     Atomic              Coordinates (Angstroms)
 Number     Number      Type              X           Y           Z 
 ---------------------------------------------------------------------
    1          6             0       -0.005994    0.599431   -0.005610
    2          7             0        0.064450   -0.188077    1.106000
    3          1             0        0.039477    1.759788    0.252658
    4          1             0       -0.478256    0.188600    1.793181
    5          8             0       -0.010334   -0.334815   -1.150152
    6          1             0       -0.223690   -1.163062    0.908522
 ---------------------------------------------------------------------

 Entering Gaussian System  

                          Input orientation:   
 ---------------------------------------------------------------------
 Center     Atomic     Atomic              Coordinates (Angstroms)
 Number     Number      Type              X           Y           Z 
 ---------------------------------------------------------------------
    1          6             0        0.021007    0.568332   -0.018023
    2          7             0        0.050374   -0.178853    1.095749
    3          1             0       -0.043922    1.716100    0.282394
    4          1             0       -0.455560    0.214487    1.798769
    5          8             0       -0.018081   -0.319051   -1.133794
    6          1             0       -0.165971   -1.153082    0.903932
 ---------------------------------------------------------------------

 Entering Gaussian System  

                          Input orientation:   
 ---------------------------------------------------------------------
 Center     Atomic     Atomic              Coordinates (Angstroms)
 Number     Number      Type              X           Y           Z 
 ---------------------------------------------------------------------
    1          6             0        0.035146    0.529312   -0.029914
    2          7             0        0.040487   -0.169376    1.089284
    3          1             0       -0.048097    1.771012    0.236399
    4          1             0       -0.472731    0.218932    1.824820
    5          8             0       -0.023965   -0.301174   -1.116201
    6          1             0       -0.082263   -1.162916    0.876152
 ---------------------------------------------------------------------

 Entering Gaussian System  

                          Input orientation:   
 ---------------------------------------------------------------------
 Center     Atomic     Atomic              Coordinates (Angstroms)
 Number     Number      Type              X           Y           Z 
 ---------------------------------------------------------------------
    1          6             0        0.045336    0.488719   -0.043515
    2          7             0        0.033011   -0.161127    1.085050
    3          1             0       -0.025184    1.829734    0.154374
    4          1             0       -0.513672    0.218570    1.853245
    5          8             0       -0.029634   -0.280714   -1.097567
    6          1             0        0.008203   -1.176950    0.854860
 ---------------------------------------------------------------------

 Entering Gaussian System  

                          Input orientation:   
 ---------------------------------------------------------------------
 Center     Atomic     Atomic              Coordinates (Angstroms)
 Number     Number      Type              X           Y           Z 
 ---------------------------------------------------------------------
    1          6             0        0.061938    0.457172   -0.061977
    2          7             0        0.024079   -0.156307    1.082060
    3          1             0       -0.043645    1.792241    0.112987
    4          1             0       -0.537116    0.228534    1.878121
    5          8             0       -0.036237   -0.260655   -1.080821
    6          1             0        0.081208   -1.158874    0.867114
 ---------------------------------------------------------------------

 Entering Gaussian System  

                          Input orientation:   
 ---------------------------------------------------------------------
 Center     Atomic     Atomic              Coordinates (Angstroms)
 Number     Number      Type              X           Y           Z 
 ---------------------------------------------------------------------
    1          6             0        0.077862    0.431758   -0.079807
    2          7             0        0.015565   -0.153525    1.081861
    3          1             0       -0.072901    1.741638    0.082984
    4          1             0       -0.546112    0.231657    1.885325
    5          8             0       -0.041914   -0.242756   -1.067832
    6          1             0        0.138195   -1.131348    0.898955
 ---------------------------------------------------------------------

 Entering Gaussian System  

                          Input orientation:   
 ---------------------------------------------------------------------
 Center     Atomic     Atomic              Coordinates (Angstroms)
 Number     Number      Type              X           Y           Z 
 ---------------------------------------------------------------------
    1          6             0        0.081772    0.408868   -0.094021
    2          7             0        0.011722   -0.151192    1.086002
    3          1             0       -0.064340    1.740161    0.032279
    4          1             0       -0.554433    0.213837    1.865293
    5          8             0       -0.043904   -0.227097   -1.058913
    6          1             0        0.176373   -1.120284    0.939931
 ---------------------------------------------------------------------

 Entering Gaussian System  

                          Input orientation:   
 ---------------------------------------------------------------------
 Center     Atomic     Atomic              Coordinates (Angstroms)
 Number     Number      Type              X           Y           Z 
 ---------------------------------------------------------------------
    1          6             0        0.081968    0.393436   -0.101776
    2          7             0        0.009327   -0.149580    1.092893
    3          1             0       -0.049133    1.751523   -0.019418
    4          1             0       -0.556505    0.188054    1.832509
    5          8             0       -0.044464   -0.215931   -1.057031
    6          1             0        0.203115   -1.121612    0.991188
 ---------------------------------------------------------------------

 Entering Gaussian System  

                          Input orientation:   
 ---------------------------------------------------------------------
 Center     Atomic     Atomic              Coordinates (Angstroms)
 Number     Number      Type              X           Y           Z 
 ---------------------------------------------------------------------
    1          6             0        0.087135    0.390559   -0.102333
    2          7             0        0.005723   -0.149622    1.101092
    3          1             0       -0.054295    1.727806   -0.053081
    4          1             0       -0.558481    0.172543    1.808781
    5          8             0       -0.046406   -0.210816   -1.063952
    6          1             0        0.229625   -1.128713    1.051130
 ---------------------------------------------------------------------

 Entering Gaussian System  

                          Input orientation:   
 ---------------------------------------------------------------------
 Center     Atomic     Atomic              Coordinates (Angstroms)
 Number     Number      Type              X           Y           Z 
 ---------------------------------------------------------------------
    1          6             0        0.097227    0.399774   -0.093841
    2          7             0        0.001677   -0.151551    1.109413
    3          1             0       -0.079533    1.671543   -0.069591
    4          1             0       -0.566005    0.177049    1.808684
    5          8             0       -0.049858   -0.212071   -1.080626
    6          1             0        0.253148   -1.140085    1.115568
 ---------------------------------------------------------------------

 Entering Gaussian System  

                          Input orientation:   
 ---------------------------------------------------------------------
 Center     Atomic     Atomic              Coordinates (Angstroms)
 Number     Number      Type              X           Y           Z 
 ---------------------------------------------------------------------
    1          6             0        0.109636    0.420149   -0.078282
    2          7             0       -0.002944   -0.156087    1.118860
    3          1             0       -0.107880    1.577693   -0.084453
    4          1             0       -0.581065    0.202820    1.830454
    5          8             0       -0.054319   -0.217924   -1.105461
    6          1             0        0.283706   -1.158865    1.186174
 ---------------------------------------------------------------------

 Entering Gaussian System  

                          Input orientation:   
 ---------------------------------------------------------------------
 Center     Atomic     Atomic              Coordinates (Angstroms)
 Number     Number      Type              X           Y           Z 
 ---------------------------------------------------------------------
    1          6             0        0.123029    0.448396   -0.058739
    2          7             0       -0.009165   -0.162034    1.130260
    3          1             0       -0.135133    1.455219   -0.103372
    4          1             0       -0.592317    0.236133    1.860665
    5          8             0       -0.059107   -0.226552   -1.135634
    6          1             0        0.325103   -1.186725    1.262523
 ---------------------------------------------------------------------

 Entering Gaussian System  

                          Input orientation:   
 ---------------------------------------------------------------------
 Center     Atomic     Atomic              Coordinates (Angstroms)
 Number     Number      Type              X           Y           Z 
 ---------------------------------------------------------------------
    1          6             0        0.138166    0.480231   -0.040043
    2          7             0       -0.015593   -0.170633    1.145553
    3          1             0       -0.170041    1.347390   -0.115170
    4          1             0       -0.604519    0.260050    1.888097
    5          8             0       -0.064390   -0.237538   -1.168709
    6          1             0        0.365032   -1.188304    1.336587
 ---------------------------------------------------------------------

 Entering Gaussian System  

                          Input orientation:   
 ---------------------------------------------------------------------
 Center     Atomic     Atomic              Coordinates (Angstroms)
 Number     Number      Type              X           Y           Z 
 ---------------------------------------------------------------------
    1          6             0        0.155556    0.511085   -0.025233
    2          7             0       -0.020350   -0.182016    1.167040
    3          1             0       -0.220172    1.295392   -0.111370
    4          1             0       -0.625687    0.255347    1.901215
    5          8             0       -0.070347   -0.250532   -1.203832
    6          1             0        0.389725   -1.134839    1.402095
 ---------------------------------------------------------------------

 Entering Gaussian System  

                          Input orientation:   
 ---------------------------------------------------------------------
 Center     Atomic     Atomic              Coordinates (Angstroms)
 Number     Number      Type              X           Y           Z 
 ---------------------------------------------------------------------
    1          6             0        0.175424    0.537386   -0.016603
    2          7             0       -0.022835   -0.194253    1.195282
    3          1             0       -0.281971    1.313781   -0.095721
    4          1             0       -0.665987    0.214693    1.905322
    5          8             0       -0.077414   -0.264217   -1.239793
    6          1             0        0.401650   -1.038707    1.457811
 ---------------------------------------------------------------------

 Entering Gaussian System  

                          Input orientation:   
 ---------------------------------------------------------------------
 Center     Atomic     Atomic              Coordinates (Angstroms)
 Number     Number      Type              X           Y           Z 
 ---------------------------------------------------------------------
    1          6             0        0.199174    0.557353   -0.011950
    2          7             0       -0.025172   -0.205002    1.224668
    3          1             0       -0.352608    1.386203   -0.083248
    4          1             0       -0.722676    0.159118    1.931402
    5          8             0       -0.086161   -0.276836   -1.274875
    6          1             0        0.417079   -0.943796    1.512298
 ---------------------------------------------------------------------

 Entering Gaussian System  

                          Input orientation:   
 ---------------------------------------------------------------------
 Center     Atomic     Atomic              Coordinates (Angstroms)
 Number     Number      Type              X           Y           Z 
 ---------------------------------------------------------------------
    1          6             0        0.229814    0.573746   -0.006656
    2          7             0       -0.032520   -0.212082    1.253403
    3          1             0       -0.448932    1.500133   -0.068035
    4          1             0       -0.757919    0.099769    1.945508
    5          8             0       -0.096379   -0.289310   -1.309890
    6          1             0        0.447759   -0.897334    1.576338
 ---------------------------------------------------------------------

 Entering Gaussian System  

                          Input orientation:   
 ---------------------------------------------------------------------
 Center     Atomic     Atomic              Coordinates (Angstroms)
 Number     Number      Type              X           Y           Z 
 ---------------------------------------------------------------------
    1          6             0        0.263140    0.592257   -0.001814
    2          7             0       -0.046350   -0.215228    1.281256
    3          1             0       -0.533990    1.591301   -0.050451
    4          1             0       -0.777263    0.037857    1.941044
    5          8             0       -0.107595   -0.301300   -1.344012
    6          1             0        0.525322   -0.913143    1.660078
 ---------------------------------------------------------------------

 Entering Gaussian System  

                          Input orientation:   
 ---------------------------------------------------------------------
 Center     Atomic     Atomic              Coordinates (Angstroms)
 Number     Number      Type              X           Y           Z 
 ---------------------------------------------------------------------
    1          6             0        0.294874    0.614430    0.002016
    2          7             0       -0.064679   -0.216340    1.306917
    3          1             0       -0.584656    1.621870   -0.029595
    4          1             0       -0.794418   -0.016418    1.934729
    5          8             0       -0.119108   -0.312393   -1.376109
    6          1             0        0.652577   -0.962111    1.752798
 ---------------------------------------------------------------------

 Entering Gaussian System  

                          Input orientation:   
 ---------------------------------------------------------------------
 Center     Atomic     Atomic              Coordinates (Angstroms)
 Number     Number      Type              X           Y           Z 
 ---------------------------------------------------------------------
    1          6             0        0.321028    0.636503    0.007706
    2          7             0       -0.077217   -0.220525    1.333392
    3          1             0       -0.630711    1.634417   -0.012088
    4          1             0       -0.822157   -0.060495    1.926683
    5          8             0       -0.128803   -0.323714   -1.407612
    6          1             0        0.742874   -0.955755    1.807651
 ---------------------------------------------------------------------

 Entering Gaussian System  

                          Input orientation:   
 ---------------------------------------------------------------------
 Center     Atomic     Atomic              Coordinates (Angstroms)
 Number     Number      Type              X           Y           Z 
 ---------------------------------------------------------------------
    1          6             0        0.339269    0.656829    0.016983
    2          7             0       -0.078349   -0.230346    1.362117
    3          1             0       -0.684137    1.658879   -0.006490
    4          1             0       -0.871535   -0.096566    1.915870
    5          8             0       -0.135685   -0.335969   -1.439238
    6          1             0        0.753111   -0.855340    1.805132
 ---------------------------------------------------------------------

 Entering Gaussian System  

                          Input orientation:   
 ---------------------------------------------------------------------
 Center     Atomic     Atomic              Coordinates (Angstroms)
 Number     Number      Type              X           Y           Z 
 ---------------------------------------------------------------------
    1          6             0        0.349849    0.677105    0.028641
    2          7             0       -0.069268   -0.243781    1.393302
    3          1             0       -0.730607    1.702959   -0.015847
    4          1             0       -0.952728   -0.144384    1.895907
    5          8             0       -0.140509   -0.349221   -1.471878
    6          1             0        0.704664   -0.696169    1.780233
 ---------------------------------------------------------------------

 Entering Gaussian System  

                          Input orientation:   
 ---------------------------------------------------------------------
 Center     Atomic     Atomic              Coordinates (Angstroms)
 Number     Number      Type              X           Y           Z 
 ---------------------------------------------------------------------
    1          6             0        0.355462    0.700832    0.044196
    2          7             0       -0.056298   -0.256036    1.425193
    3          1             0       -0.746631    1.765223   -0.040244
    4          1             0       -1.065725   -0.224749    1.860358
    5          8             0       -0.145005   -0.363996   -1.508722
    6          1             0        0.657414   -0.555971    1.796434
 ---------------------------------------------------------------------

 Entering Gaussian System  

                          Input orientation:   
 ---------------------------------------------------------------------
 Center     Atomic     Atomic              Coordinates (Angstroms)
 Number     Number      Type              X           Y           Z 
 ---------------------------------------------------------------------
    1          6             0        0.359421    0.731904    0.063763
    2          7             0       -0.045510   -0.264365    1.455910
    3          1             0       -0.724340    1.842706   -0.066634
    4          1             0       -1.197755   -0.340305    1.813858
    5          8             0       -0.150400   -0.381657   -1.551742
    6          1             0        0.655147   -0.492070    1.892149
 ---------------------------------------------------------------------

 Entering Gaussian System  

                          Input orientation:   
 ---------------------------------------------------------------------
 Center     Atomic     Atomic              Coordinates (Angstroms)
 Number     Number      Type              X           Y           Z 
 ---------------------------------------------------------------------
    1          6             0        0.363873    0.763831    0.080785
    2          7             0       -0.040775   -0.269414    1.478116
    3          1             0       -0.689898    1.903926   -0.075883
    4          1             0       -1.303447   -0.435590    1.790719
    5          8             0       -0.155697   -0.398973   -1.588878
    6          1             0        0.691256   -0.493428    2.002565
 ---------------------------------------------------------------------

 Entering Gaussian System  

                          Input orientation:   
 ---------------------------------------------------------------------
 Center     Atomic     Atomic              Coordinates (Angstroms)
 Number     Number      Type              X           Y           Z 
 ---------------------------------------------------------------------
    1          6             0        0.363873    0.763831    0.080785
    2          7             0       -0.040775   -0.269414    1.478116
    3          1             0       -0.689898    1.903926   -0.075883
    4          1             0       -1.303447   -0.435590    1.790719
    5          8             0       -0.155697   -0.398973   -1.588878
    6          1             0        0.691256   -0.493428    2.002565
 ---------------------------------------------------------------------

 Entering Gaussian System  

                          Input orientation:   
 ---------------------------------------------------------------------
 Center     Atomic     Atomic              Coordinates (Angstroms)
 Number     Number      Type              X           Y           Z 
 ---------------------------------------------------------------------
    1          6             0        0.363873    0.763831    0.080785
    2          7             0       -0.040775   -0.269414    1.478116
    3          1             0       -0.689898    1.903926   -0.075883
    4          1             0       -1.303447   -0.435590    1.790719
    5          8             0       -0.155697   -0.398973   -1.588878
    6          1             0        0.691256   -0.493428    2.002565
 ---------------------------------------------------------------------

 Entering Gaussian System  

                          Input orientation:   
 ---------------------------------------------------------------------
 Center     Atomic     Atomic              Coordinates (Angstroms)
 Number     Number      Type              X           Y           Z 
 ---------------------------------------------------------------------
    1          6             0        0.363873    0.763831    0.080785
    2          7             0       -0.040775   -0.269414    1.478116
    3          1             0       -0.689898    1.903926   -0.075883
    4          1             0       -1.303447   -0.435590    1.790719
    5          8             0       -0.155697   -0.398973   -1.588878
    6          1             0        0.691256   -0.493428    2.002565
 ---------------------------------------------------------------------

 Entering Gaussian System  

                          Input orientation:   
 ---------------------------------------------------------------------
 Center     Atomic     Atomic              Coordinates (Angstroms)
 Number     Number      Type              X           Y           Z 
 ---------------------------------------------------------------------
    1          6             0        0.363873    0.763831    0.080785
    2          7             0       -0.040775   -0.269414    1.478116
    3          1             0       -0.689898    1.903926   -0.075883
    4          1             0       -1.303447   -0.435590    1.790719
    5          8             0       -0.155697   -0.398973   -1.588878
    6          1             0        0.691256   -0.493428    2.002565
 ---------------------------------------------------------------------

 Entering Gaussian System  

                          Input orientation:   
 ---------------------------------------------------------------------
 Center     Atomic     Atomic              Coordinates (Angstroms)
 Number     Number      Type              X           Y           Z 
 ---------------------------------------------------------------------
    1          6             0        0.363873    0.763831    0.080785
    2          7             0       -0.040775   -0.269414    1.478116
    3          1             0       -0.689898    1.903926   -0.075883
    4          1             0       -1.303447   -0.435590    1.790719
    5          8             0       -0.155697   -0.398973   -1.588878
    6          1             0        0.691256   -0.493428    2.002565
 ---------------------------------------------------------------------

 Entering Gaussian System  

                          Input orientation:   
 ---------------------------------------------------------------------
 Center     Atomic     Atomic              Coordinates (Angstroms)
 Number     Number      Type              X           Y           Z 
 ---------------------------------------------------------------------
    1          6             0        0.363873    0.763831    0.080785
    2          7             0       -0.040775   -0.269414    1.478116
    3          1             0       -0.689898    1.903926   -0.075883
    4          1             0       -1.303447   -0.435590    1.790719
    5          8             0       -0.155697   -0.398973   -1.588878
    6          1             0        0.691256   -0.493428    2.002565
 ---------------------------------------------------------------------

 Entering Gaussian System  

                          Input orientation:   
 ---------------------------------------------------------------------
 Center     Atomic     Atomic              Coordinates (Angstroms)
 Number     Number      Type              X           Y           Z 
 ---------------------------------------------------------------------
    1          6             0        0.363873    0.763831    0.080785
    2          7             0       -0.040775   -0.269414    1.478116
    3          1             0       -0.689898    1.903926   -0.075883
    4          1             0       -1.303447   -0.435590    1.790719
    5          8             0       -0.155697   -0.398973   -1.588878
    6          1             0        0.691256   -0.493428    2.002565
 ---------------------------------------------------------------------

 Entering Gaussian System  

                          Input orientation:   
 ---------------------------------------------------------------------
 Center     Atomic     Atomic              Coordinates (Angstroms)
 Number     Number      Type              X           Y           Z 
 ---------------------------------------------------------------------
    1          6             0        0.363873    0.763831    0.080785
    2          7             0       -0.040775   -0.269414    1.478116
    3          1             0       -0.689898    1.903926   -0.075883
    4          1             0       -1.303447   -0.435590    1.790719
    5          8             0       -0.155697   -0.398973   -1.588878
    6          1             0        0.691256   -0.493428    2.002565
 ---------------------------------------------------------------------

 Entering Gaussian System  

                          Input orientation:   
 ---------------------------------------------------------------------
 Center     Atomic     Atomic              Coordinates (Angstroms)
 Number     Number      Type              X           Y           Z 
 ---------------------------------------------------------------------
    1          6             0        0.363873    0.763831    0.080785
    2          7             0       -0.040775   -0.269414    1.478116
    3          1             0       -0.689898    1.903926   -0.075883
    4          1             0       -1.303447   -0.435590    1.790719
    5          8             0       -0.155697   -0.398973   -1.588878
    6          1             0        0.691256   -0.493428    2.002565
 ---------------------------------------------------------------------

 Entering Gaussian System  

                          Input orientation:   
 ---------------------------------------------------------------------
 Center     Atomic     Atomic              Coordinates (Angstroms)
 Number     Number      Type              X           Y           Z 
 ---------------------------------------------------------------------
    1          6             0        0.363873    0.763831    0.080785
    2          7             0       -0.040775   -0.269414    1.478116
    3          1             0       -0.689898    1.903926   -0.075883
    4          1             0       -1.303447   -0.435590    1.790719
    5          8             0       -0.155697   -0.398973   -1.588878
    6          1             0        0.691256   -0.493428    2.002565
 ---------------------------------------------------------------------

 Entering Gaussian System  

                          Input orientation:   
 ---------------------------------------------------------------------
 Center     Atomic     Atomic              Coordinates (Angstroms)
 Number     Number      Type              X           Y           Z 
 ---------------------------------------------------------------------
    1          6             0        0.363873    0.763831    0.080785
    2          7             0       -0.040775   -0.269414    1.478116
    3          1             0       -0.689898    1.903926   -0.075883
    4          1             0       -1.303447   -0.435590    1.790719
    5          8             0       -0.155697   -0.398973   -1.588878
    6          1             0        0.691256   -0.493428    2.002565
 ---------------------------------------------------------------------

 Entering Gaussian System  

                          Input orientation:   
 ---------------------------------------------------------------------
 Center     Atomic     Atomic              Coordinates (Angstroms)
 Number     Number      Type              X           Y           Z 
 ---------------------------------------------------------------------
    1          6             0        0.363873    0.763831    0.080785
    2          7             0       -0.040775   -0.269414    1.478116
    3          1             0       -0.689898    1.903926   -0.075883
    4          1             0       -1.303447   -0.435590    1.790719
    5          8             0       -0.155697   -0.398973   -1.588878
    6          1             0        0.691256   -0.493428    2.002565
 ---------------------------------------------------------------------

 Entering Gaussian System  

                          Input orientation:   
 ---------------------------------------------------------------------
 Center     Atomic     Atomic              Coordinates (Angstroms)
 Number     Number      Type              X           Y           Z 
 ---------------------------------------------------------------------
    1          6             0        0.363873    0.763831    0.080785
    2          7             0       -0.040775   -0.269414    1.478116
    3          1             0       -0.689898    1.903926   -0.075883
    4          1             0       -1.303447   -0.435590    1.790719
    5          8             0       -0.155697   -0.398973   -1.588878
    6          1             0        0.691256   -0.493428    2.002565
 ---------------------------------------------------------------------

 Entering Gaussian System  

                          Input orientation:   
 ---------------------------------------------------------------------
 Center     Atomic     Atomic              Coordinates (Angstroms)
 Number     Number      Type              X           Y           Z 
 ---------------------------------------------------------------------
    1          6             0        0.363873    0.763831    0.080785
    2          7             0       -0.040775   -0.269414    1.478116
    3          1             0       -0.689898    1.903926   -0.075883
    4          1             0       -1.303447   -0.435590    1.790719
    5          8             0       -0.155697   -0.398973   -1.588878
    6          1             0        0.691256   -0.493428    2.002565
 ---------------------------------------------------------------------

 Entering Gaussian System  

                          Input orientation:   
 ---------------------------------------------------------------------
 Center     Atomic     Atomic              Coordinates (Angstroms)
 Number     Number      Type              X           Y           Z 
 ---------------------------------------------------------------------
    1          6             0        0.363873    0.763831    0.080785
    2          7             0       -0.040775   -0.269414    1.478116
    3          1             0       -0.689898    1.903926   -0.075883
    4          1             0       -1.303447   -0.435590    1.790719
    5          8             0       -0.155697   -0.398973   -1.588878
    6          1             0        0.691256   -0.493428    2.002565
 ---------------------------------------------------------------------

 Entering Gaussian System  

                          Input orientation:   
 ---------------------------------------------------------------------
 Center     Atomic     Atomic              Coordinates (Angstroms)
 Number     Number      Type              X           Y           Z 
 ---------------------------------------------------------------------
    1          6             0        0.363873    0.763831    0.080785
    2          7             0       -0.040775   -0.269414    1.478116
    3          1             0       -0.689898    1.903926   -0.075883
    4          1             0       -1.303447   -0.435590    1.790719
    5          8             0       -0.155697   -0.398973   -1.588878
    6          1             0        0.691256   -0.493428    2.002565
 ---------------------------------------------------------------------

 Entering Gaussian System  

                          Input orientation:   
 ---------------------------------------------------------------------
 Center     Atomic     Atomic              Coordinates (Angstroms)
 Number     Number      Type              X           Y           Z 
 ---------------------------------------------------------------------
    1          6             0        0.363873    0.763831    0.080785
    2          7             0       -0.040775   -0.269414    1.478116
    3          1             0       -0.689898    1.903926   -0.075883
    4          1             0       -1.303447   -0.435590    1.790719
    5          8             0       -0.155697   -0.398973   -1.588878
    6          1             0        0.691256   -0.493428    2.002565
 ---------------------------------------------------------------------

 Entering Gaussian System  

                          Input orientation:   
 ---------------------------------------------------------------------
 Center     Atomic     Atomic              Coordinates (Angstroms)
 Number     Number      Type              X           Y           Z 
 ---------------------------------------------------------------------
    1          6             0        0.363873    0.763831    0.080785
    2          7             0       -0.040775   -0.269414    1.478116
    3          1             0       -0.689898    1.903926   -0.075883
    4          1             0       -1.303447   -0.435590    1.790719
    5          8             0       -0.155697   -0.398973   -1.588878
    6          1             0        0.691256   -0.493428    2.002565
 ---------------------------------------------------------------------

 Entering Gaussian System  

                          Input orientation:   
 ---------------------------------------------------------------------
 Center     Atomic     Atomic              Coordinates (Angstroms)
 Number     Number      Type              X           Y           Z 
 ---------------------------------------------------------------------
    1          6             0        0.363873    0.763831    0.080785
    2          7             0       -0.040775   -0.269414    1.478116
    3          1             0       -0.689898    1.903926   -0.075883
    4          1             0       -1.303447   -0.435590    1.790719
    5          8             0       -0.155697   -0.398973   -1.588878
    6          1             0        0.691256   -0.493428    2.002565
 ---------------------------------------------------------------------

 Entering Gaussian System  

                          Input orientation:   
 ---------------------------------------------------------------------
 Center     Atomic     Atomic              Coordinates (Angstroms)
 Number     Number      Type              X           Y           Z 
 ---------------------------------------------------------------------
    1          6             0        0.363873    0.763831    0.080785
    2          7             0       -0.040775   -0.269414    1.478116
    3          1             0       -0.689898    1.903926   -0.075883
    4          1             0       -1.303447   -0.435590    1.790719
    5          8             0       -0.155697   -0.398973   -1.588878
    6          1             0        0.691256   -0.493428    2.002565
 ---------------------------------------------------------------------

 Entering Gaussian System  

                          Input orientation:   
 ---------------------------------------------------------------------
 Center     Atomic     Atomic              Coordinates (Angstroms)
 Number     Number      Type              X           Y           Z 
 ---------------------------------------------------------------------
    1          6             0        0.363873    0.763831    0.080785
    2          7             0       -0.040775   -0.269414    1.478116
    3          1             0       -0.689898    1.903926   -0.075883
    4          1             0       -1.303447   -0.435590    1.790719
    5          8             0       -0.155697   -0.398973   -1.588878
    6          1             0        0.691256   -0.493428    2.002565
 ---------------------------------------------------------------------

 Entering Gaussian System  

                          Input orientation:   
 ---------------------------------------------------------------------
 Center     Atomic     Atomic              Coordinates (Angstroms)
 Number     Number      Type              X           Y           Z 
 ---------------------------------------------------------------------
    1          6             0        0.363873    0.763831    0.080785
    2          7             0       -0.040775   -0.269414    1.478116
    3          1             0       -0.689898    1.903926   -0.075883
    4          1             0       -1.303447   -0.435590    1.790719
    5          8             0       -0.155697   -0.398973   -1.588878
    6          1             0        0.691256   -0.493428    2.002565
 ---------------------------------------------------------------------

 Entering Gaussian System  

                          Input orientation:   
 ---------------------------------------------------------------------
 Center     Atomic     Atomic              Coordinates (Angstroms)
 Number     Number      Type              X           Y           Z 
 ---------------------------------------------------------------------
    1          6             0        0.363873    0.763831    0.080785
    2          7             0       -0.040775   -0.269414    1.478116
    3          1             0       -0.689898    1.903926   -0.075883
    4          1             0       -1.303447   -0.435590    1.790719
    5          8             0       -0.155697   -0.398973   -1.588878
    6          1             0        0.691256   -0.493428    2.002565
 ---------------------------------------------------------------------

 Entering Gaussian System  

                          Input orientation:   
 ---------------------------------------------------------------------
 Center     Atomic     Atomic              Coordinates (Angstroms)
 Number     Number      Type              X           Y           Z 
 ---------------------------------------------------------------------
    1          6             0        0.363873    0.763831    0.080785
    2          7             0       -0.040775   -0.269414    1.478116
    3          1             0       -0.689898    1.903926   -0.075883
    4          1             0       -1.303447   -0.435590    1.790719
    5          8             0       -0.155697   -0.398973   -1.588878
    6          1             0        0.691256   -0.493428    2.002565
 ---------------------------------------------------------------------

 Entering Gaussian System  

                          Input orientation:   
 ---------------------------------------------------------------------
 Center     Atomic     Atomic              Coordinates (Angstroms)
 Number     Number      Type              X           Y           Z 
 ---------------------------------------------------------------------
    1          6             0        0.363873    0.763831    0.080785
    2          7             0       -0.040775   -0.269414    1.478116
    3          1             0       -0.689898    1.903926   -0.075883
    4          1             0       -1.303447   -0.435590    1.790719
    5          8             0       -0.155697   -0.398973   -1.588878
    6          1             0        0.691256   -0.493428    2.002565
 ---------------------------------------------------------------------

 Entering Gaussian System  

                          Input orientation:   
 ---------------------------------------------------------------------
 Center     Atomic     Atomic              Coordinates (Angstroms)
 Number     Number      Type              X           Y           Z 
 ---------------------------------------------------------------------
    1          6             0        0.363873    0.763831    0.080785
    2          7             0       -0.040775   -0.269414    1.478116
    3          1             0       -0.689898    1.903926   -0.075883
    4          1             0       -1.303447   -0.435590    1.790719
    5          8             0       -0.155697   -0.398973   -1.588878
    6          1             0        0.691256   -0.493428    2.002565
 ---------------------------------------------------------------------

 Entering Gaussian System  

                          Input orientation:   
 ---------------------------------------------------------------------
 Center     Atomic     Atomic              Coordinates (Angstroms)
 Number     Number      Type              X           Y           Z 
 ---------------------------------------------------------------------
    1          6             0        0.363873    0.763831    0.080785
    2          7             0       -0.040775   -0.269414    1.478116
    3          1             0       -0.689898    1.903926   -0.075883
    4          1             0       -1.303447   -0.435590    1.790719
    5          8             0       -0.155697   -0.398973   -1.588878
    6          1             0        0.691256   -0.493428    2.002565
 ---------------------------------------------------------------------

 Entering Gaussian System  

                          Input orientation:   
 ---------------------------------------------------------------------
 Center     Atomic     Atomic              Coordinates (Angstroms)
 Number     Number      Type              X           Y           Z 
 ---------------------------------------------------------------------
    1          6             0        0.363873    0.763831    0.080785
    2          7             0       -0.040775   -0.269414    1.478116
    3          1             0       -0.689898    1.903926   -0.075883
    4          1             0       -1.303447   -0.435590    1.790719
    5          8             0       -0.155697   -0.398973   -1.588878
    6          1             0        0.691256   -0.493428    2.002565
 ---------------------------------------------------------------------

 Entering Gaussian System  

                          Input orientation:   
 ---------------------------------------------------------------------
 Center     Atomic     Atomic              Coordinates (Angstroms)
 Number     Number      Type              X           Y           Z 
 ---------------------------------------------------------------------
    1          6             0        0.363873    0.763831    0.080785
    2          7             0       -0.040775   -0.269414    1.478116
    3          1             0       -0.689898    1.903926   -0.075883
    4          1             0       -1.303447   -0.435590    1.790719
    5          8             0       -0.155697   -0.398973   -1.588878
    6          1             0        0.691256   -0.493428    2.002565
 ---------------------------------------------------------------------

 Entering Gaussian System  

                          Input orientation:   
 ---------------------------------------------------------------------
 Center     Atomic     Atomic              Coordinates (Angstroms)
 Number     Number      Type              X           Y           Z 
 ---------------------------------------------------------------------
    1          6             0        0.363873    0.763831    0.080785
    2          7             0       -0.040775   -0.269414    1.478116
    3          1             0       -0.689898    1.903926   -0.075883
    4          1             0       -1.303447   -0.435590    1.790719
    5          8             0       -0.155697   -0.398973   -1.588878
    6          1             0        0.691256   -0.493428    2.002565
 ---------------------------------------------------------------------

 Entering Gaussian System  

                          Input orientation:   
 ---------------------------------------------------------------------
 Center     Atomic     Atomic              Coordinates (Angstroms)
 Number     Number      Type              X           Y           Z 
 ---------------------------------------------------------------------
    1          6             0        0.363873    0.763831    0.080785
    2          7             0       -0.040775   -0.269414    1.478116
    3          1             0       -0.689898    1.903926   -0.075883
    4          1             0       -1.303447   -0.435590    1.790719
    5          8             0       -0.155697   -0.398973   -1.588878
    6          1             0        0.691256   -0.493428    2.002565
 ---------------------------------------------------------------------

 Entering Gaussian System  

                          Input orientation:   
 ---------------------------------------------------------------------
 Center     Atomic     Atomic              Coordinates (Angstroms)
 Number     Number      Type              X           Y           Z 
 ---------------------------------------------------------------------
    1          6             0        0.363873    0.763831    0.080785
    2          7             0       -0.040775   -0.269414    1.478116
    3          1             0       -0.689898    1.903926   -0.075883
    4          1             0       -1.303447   -0.435590    1.790719
    5          8             0       -0.155697   -0.398973   -1.588878
    6          1             0        0.691256   -0.493428    2.002565
 ---------------------------------------------------------------------

 Entering Gaussian System  

                          Input orientation:   
 ---------------------------------------------------------------------
 Center     Atomic     Atomic              Coordinates (Angstroms)
 Number     Number      Type              X           Y           Z 
 ---------------------------------------------------------------------
    1          6             0        0.363873    0.763831    0.080785
    2          7             0       -0.040775   -0.269414    1.478116
    3          1             0       -0.689898    1.903926   -0.075883
    4          1             0       -1.303447   -0.435590    1.790719
    5          8             0       -0.155697   -0.398973   -1.588878
    6          1             0        0.691256   -0.493428    2.002565
 ---------------------------------------------------------------------

 Entering Gaussian System  

                          Input orientation:   
 ---------------------------------------------------------------------
 Center     Atomic     Atomic              Coordinates (Angstroms)
 Number     Number      Type              X           Y           Z 
 ---------------------------------------------------------------------
    1          6             0        0.363873    0.763831    0.080785
    2          7             0       -0.040775   -0.269414    1.478116
    3          1             0       -0.689898    1.903926   -0.075883
    4          1             0       -1.303447   -0.435590    1.790719
    5          8             0       -0.155697   -0.398973   -1.588878
    6          1             0        0.691256   -0.493428    2.002565
 ---------------------------------------------------------------------

 Entering Gaussian System  

                          Input orientation:   
 ---------------------------------------------------------------------
 Center     Atomic     Atomic              Coordinates (Angstroms)
 Number     Number      Type              X           Y           Z 
 ---------------------------------------------------------------------
    1          6             0        0.363873    0.763831    0.080785
    2          7             0       -0.040775   -0.269414    1.478116
    3          1             0       -0.689898    1.903926   -0.075883
    4          1             0       -1.303447   -0.435590    1.790719
    5          8             0       -0.155697   -0.398973   -1.588878
    6          1             0        0.691256   -0.493428    2.002565
 ---------------------------------------------------------------------
