
 Entering Gaussian System  

                          Input orientation:   
 ---------------------------------------------------------------------
 Center     Atomic     Atomic              Coordinates (Angstroms)
 Number     Number      Type              X           Y           Z 
 ---------------------------------------------------------------------
    1          6             0        0.000000    0.401721   -0.096031
    2          7             0        0.000000   -0.162504    1.145371
    3          1             0        0.000000    1.541283   -0.009698
    4          1             0        0.000000    0.374796    1.979555
    5          8             0        0.000000   -0.207339   -1.131411
    6          1             0        0.000000   -1.153754    1.217289
 ---------------------------------------------------------------------

 Entering Gaussian System  

                          Input orientation:   
 ---------------------------------------------------------------------
 Center     Atomic     Atomic              Coordinates (Angstroms)
 Number     Number      Type              X           Y           Z 
 ---------------------------------------------------------------------
    1          6             0        0.004495    0.389358   -0.090187
    2          7             0        0.015150   -0.159586    1.150433
    3          1             0       -0.077308    1.543563   -0.028283
    4          1             0       -0.047866    0.388613    1.974518
    5          8             0       -0.000734   -0.201708   -1.140194
    6          1             0       -0.127656   -1.152480    1.240342
 ---------------------------------------------------------------------

 Entering Gaussian System  

                          Input orientation:   
 ---------------------------------------------------------------------
 Center     Atomic     Atomic              Coordinates (Angstroms)
 Number     Number      Type              X           Y           Z 
 ---------------------------------------------------------------------
    1          6             0        0.008426    0.388557   -0.078849
    2          7             0        0.014484   -0.157812    1.150610
    3          1             0       -0.096973    1.568711   -0.038155
    4          1             0       -0.045631    0.394042    1.965510
    5          8             0       -0.001674   -0.203267   -1.148854
    6          1             0       -0.132892   -1.173436    1.259093
 ---------------------------------------------------------------------

 Entering Gaussian System  

                          Input orientation:   
 ---------------------------------------------------------------------
 Center     Atomic     Atomic              Coordinates (Angstroms)
 Number     Number      Type              X           Y           Z 
 ---------------------------------------------------------------------
    1          6             0        0.010280    0.393154   -0.061719
    2          7             0        0.015403   -0.156634    1.148930
    3          1             0       -0.117303    1.601305   -0.055533
    4          1             0       -0.040309    0.403311    1.964326
    5          8             0       -0.001699   -0.208237   -1.159935
    6          1             0       -0.152354   -1.207561    1.272781
 ---------------------------------------------------------------------

 Entering Gaussian System  

                          Input orientation:   
 ---------------------------------------------------------------------
 Center     Atomic     Atomic              Coordinates (Angstroms)
 Number     Number      Type              X           Y           Z 
 ---------------------------------------------------------------------
    1          6             0        0.009732    0.405579   -0.042683
    2          7             0        0.019043   -0.159094    1.145983
    3          1             0       -0.136070    1.637984   -0.074791
    4          1             0       -0.040702    0.415641    1.962219
    5          8             0       -0.000958   -0.216710   -1.171175
    6          1             0       -0.189068   -1.235956    1.286657
 ---------------------------------------------------------------------

 Entering Gaussian System  

                          Input orientation:   
 ---------------------------------------------------------------------
 Center     Atomic     Atomic              Coordinates (Angstroms)
 Number     Number      Type              X           Y           Z 
 ---------------------------------------------------------------------
    1          6             0        0.008717    0.416114   -0.023176
    2          7             0        0.025177   -0.162961    1.143469
    3          1             0       -0.157422    1.686030   -0.090392
    4          1             0       -0.053099    0.436943    1.954080
    5          8             0       -0.000249   -0.224553   -1.183409
    6          1             0       -0.239843   -1.252610    1.307065
 ---------------------------------------------------------------------

 Entering Gaussian System  

                          Input orientation:   
 ---------------------------------------------------------------------
 Center     Atomic     Atomic              Coordinates (Angstroms)
 Number     Number      Type              X           Y           Z 
 ---------------------------------------------------------------------
    1          6             0        0.009570    0.428360   -0.004703
    2          7             0        0.029227   -0.168511    1.141334
    3          1             0       -0.180688    1.725471   -0.103566
    4          1             0       -0.060446    0.463362    1.943848
    5          8             0       -0.000102   -0.232557   -1.195247
    6          1             0       -0.278107   -1.260242    1.327902
 ---------------------------------------------------------------------

 Entering Gaussian System  

                          Input orientation:   
 ---------------------------------------------------------------------
 Center     Atomic     Atomic              Coordinates (Angstroms)
 Number     Number      Type              X           Y           Z 
 ---------------------------------------------------------------------
    1          6             0        0.012839    0.442334    0.011238
    2          7             0        0.029250   -0.177145    1.139353
    3          1             0       -0.199835    1.757799   -0.112706
    4          1             0       -0.059446    0.492142    1.933168
    5          8             0       -0.000824   -0.240915   -1.204794
    6          1             0       -0.287767   -1.235213    1.336826
 ---------------------------------------------------------------------

 Entering Gaussian System  

                          Input orientation:   
 ---------------------------------------------------------------------
 Center     Atomic     Atomic              Coordinates (Angstroms)
 Number     Number      Type              X           Y           Z 
 ---------------------------------------------------------------------
    1          6             0        0.015738    0.456776    0.023128
    2          7             0        0.029314   -0.189022    1.138953
    3          1             0       -0.213428    1.786493   -0.121790
    4          1             0       -0.062943    0.515807    1.912756
    5          8             0       -0.001668   -0.248674   -1.211534
    6          1             0       -0.292738   -1.171474    1.337166
 ---------------------------------------------------------------------

 Entering Gaussian System  

                          Input orientation:   
 ---------------------------------------------------------------------
 Center     Atomic     Atomic              Coordinates (Angstroms)
 Number     Number      Type              X           Y           Z 
 ---------------------------------------------------------------------
    1          6             0        0.019413    0.473059    0.029468
    2          7             0        0.028428   -0.201298    1.141314
    3          1             0       -0.226072    1.804708   -0.133092
    4          1             0       -0.065832    0.519862    1.887736
    5          8             0       -0.002830   -0.256344   -1.215342
    6          1             0       -0.290250   -1.095439    1.325561
 ---------------------------------------------------------------------

 Entering Gaussian System  

                          Input orientation:   
 ---------------------------------------------------------------------
 Center     Atomic     Atomic              Coordinates (Angstroms)
 Number     Number      Type              X           Y           Z 
 ---------------------------------------------------------------------
    1          6             0        0.021185    0.487425    0.029415
    2          7             0        0.029849   -0.212220    1.145887
    3          1             0       -0.233199    1.821703   -0.145998
    4          1             0       -0.079488    0.514776    1.859321
    5          8             0       -0.003658   -0.262034   -1.216028
    6          1             0       -0.297256   -1.036432    1.314824
 ---------------------------------------------------------------------

 Entering Gaussian System  

                          Input orientation:   
 ---------------------------------------------------------------------
 Center     Atomic     Atomic              Coordinates (Angstroms)
 Number     Number      Type              X           Y           Z 
 ---------------------------------------------------------------------
    1          6             0        0.018493    0.499830    0.023458
    2          7             0        0.035213   -0.220345    1.151648
    3          1             0       -0.232540    1.833584   -0.162453
    4          1             0       -0.101490    0.503576    1.837904
    5          8             0       -0.003146   -0.265643   -1.213792
    6          1             0       -0.326638   -1.014729    1.308139
 ---------------------------------------------------------------------

 Entering Gaussian System  

                          Input orientation:   
 ---------------------------------------------------------------------
 Center     Atomic     Atomic              Coordinates (Angstroms)
 Number     Number      Type              X           Y           Z 
 ---------------------------------------------------------------------
    1          6             0        0.014179    0.511968    0.015350
    2          7             0        0.043338   -0.223212    1.156650
    3          1             0       -0.240648    1.835530   -0.179827
    4          1             0       -0.122301    0.485447    1.827513
    5          8             0       -0.001714   -0.268581   -1.210444
    6          1             0       -0.382110   -1.056731    1.309856
 ---------------------------------------------------------------------

 Entering Gaussian System  

                          Input orientation:   
 ---------------------------------------------------------------------
 Center     Atomic     Atomic              Coordinates (Angstroms)
 Number     Number      Type              X           Y           Z 
 ---------------------------------------------------------------------
    1          6             0        0.008360    0.523684    0.005382
    2          7             0        0.053450   -0.222691    1.160744
    3          1             0       -0.254823    1.833005   -0.195347
    4          1             0       -0.140300    0.466249    1.833552
    5          8             0        0.000553   -0.271143   -1.206375
    6          1             0       -0.457294   -1.141178    1.316649
 ---------------------------------------------------------------------

 Entering Gaussian System  

                          Input orientation:   
 ---------------------------------------------------------------------
 Center     Atomic     Atomic              Coordinates (Angstroms)
 Number     Number      Type              X           Y           Z 
 ---------------------------------------------------------------------
    1          6             0        0.004020    0.536732   -0.007260
    2          7             0        0.062718   -0.223608    1.165683
    3          1             0       -0.273827    1.806239   -0.202314
    4          1             0       -0.156205    0.447463    1.857413
    5          8             0        0.002423   -0.273818   -1.202142
    6          1             0       -0.529326   -1.195901    1.314603
 ---------------------------------------------------------------------

 Entering Gaussian System  

                          Input orientation:   
 ---------------------------------------------------------------------
 Center     Atomic     Atomic              Coordinates (Angstroms)
 Number     Number      Type              X           Y           Z 
 ---------------------------------------------------------------------
    1          6             0        0.001570    0.550979   -0.021968
    2          7             0        0.069954   -0.226991    1.171431
    3          1             0       -0.292903    1.756134   -0.200091
    4          1             0       -0.169806    0.428077    1.895099
    5          8             0        0.003605   -0.276724   -1.197794
    6          1             0       -0.586918   -1.203018    1.301064
 ---------------------------------------------------------------------

 Entering Gaussian System  

                          Input orientation:   
 ---------------------------------------------------------------------
 Center     Atomic     Atomic              Coordinates (Angstroms)
 Number     Number      Type              X           Y           Z 
 ---------------------------------------------------------------------
    1          6             0        0.000098    0.564193   -0.036854
    2          7             0        0.074712   -0.231501    1.176653
    3          1             0       -0.305508    1.698876   -0.191949
    4          1             0       -0.179593    0.405788    1.937395
    5          8             0        0.004308   -0.279501   -1.193009
    6          1             0       -0.624356   -1.174183    1.279494
 ---------------------------------------------------------------------

 Entering Gaussian System  

                          Input orientation:   
 ---------------------------------------------------------------------
 Center     Atomic     Atomic              Coordinates (Angstroms)
 Number     Number      Type              X           Y           Z 
 ---------------------------------------------------------------------
    1          6             0       -0.000814    0.575512   -0.051600
    2          7             0        0.076940   -0.236296    1.181031
    3          1             0       -0.312409    1.640367   -0.177920
    4          1             0       -0.181492    0.379289    1.976630
    5          8             0        0.004819   -0.281891   -1.187444
    6          1             0       -0.643792   -1.119464    1.252791
 ---------------------------------------------------------------------

 Entering Gaussian System  

                          Input orientation:   
 ---------------------------------------------------------------------
 Center     Atomic     Atomic              Coordinates (Angstroms)
 Number     Number      Type              X           Y           Z 
 ---------------------------------------------------------------------
    1          6             0       -0.002008    0.583688   -0.065973
    2          7             0        0.076794   -0.239792    1.183331
    3          1             0       -0.314955    1.570281   -0.155844
    4          1             0       -0.169387    0.353458    2.022717
    5          8             0        0.005656   -0.283201   -1.181087
    6          1             0       -0.650338   -1.051570    1.223029
 ---------------------------------------------------------------------

 Entering Gaussian System  

                          Input orientation:   
 ---------------------------------------------------------------------
 Center     Atomic     Atomic              Coordinates (Angstroms)
 Number     Number      Type              X           Y           Z 
 ---------------------------------------------------------------------
    1          6             0       -0.003259    0.587261   -0.079323
    2          7             0        0.075553   -0.240297    1.183881
    3          1             0       -0.321722    1.506153   -0.130526
    4          1             0       -0.143840    0.326244    2.069890
    5          8             0        0.006962   -0.283275   -1.174111
    6          1             0       -0.657593   -0.994602    1.191252
 ---------------------------------------------------------------------

 Entering Gaussian System  

                          Input orientation:   
 ---------------------------------------------------------------------
 Center     Atomic     Atomic              Coordinates (Angstroms)
 Number     Number      Type              X           Y           Z 
 ---------------------------------------------------------------------
    1          6             0       -0.004045    0.584655   -0.090638
    2          7             0        0.073451   -0.236745    1.183081
    3          1             0       -0.334644    1.470218   -0.109307
    4          1             0       -0.107715    0.292775    2.101372
    5          8             0        0.008514   -0.281823   -1.166313
    6          1             0       -0.666737   -0.966531    1.160748
 ---------------------------------------------------------------------

 Entering Gaussian System  

                          Input orientation:   
 ---------------------------------------------------------------------
 Center     Atomic     Atomic              Coordinates (Angstroms)
 Number     Number      Type              X           Y           Z 
 ---------------------------------------------------------------------
    1          6             0       -0.002331    0.577970   -0.099195
    2          7             0        0.069837   -0.230942    1.181841
    3          1             0       -0.360632    1.470322   -0.090580
    4          1             0       -0.061539    0.253530    2.112677
    5          8             0        0.009694   -0.280069   -1.158902
    6          1             0       -0.675672   -0.956201    1.132275
 ---------------------------------------------------------------------

 Entering Gaussian System  

                          Input orientation:   
 ---------------------------------------------------------------------
 Center     Atomic     Atomic              Coordinates (Angstroms)
 Number     Number      Type              X           Y           Z 
 ---------------------------------------------------------------------
    1          6             0        0.003607    0.565514   -0.104686
    2          7             0        0.064025   -0.224249    1.180066
    3          1             0       -0.403595    1.529837   -0.071454
    4          1             0       -0.007129    0.212054    2.114441
    5          8             0        0.009888   -0.278416   -1.152646
    6          1             0       -0.679960   -0.945048    1.102192
 ---------------------------------------------------------------------

 Entering Gaussian System  

                          Input orientation:   
 ---------------------------------------------------------------------
 Center     Atomic     Atomic              Coordinates (Angstroms)
 Number     Number      Type              X           Y           Z 
 ---------------------------------------------------------------------
    1          6             0        0.012411    0.549866   -0.107610
    2          7             0        0.056509   -0.217736    1.177429
    3          1             0       -0.455004    1.623125   -0.054609
    4          1             0        0.050730    0.174754    2.119382
    5          8             0        0.009272   -0.276923   -1.147493
    6          1             0       -0.676871   -0.928742    1.070086
 ---------------------------------------------------------------------

 Entering Gaussian System  

                          Input orientation:   
 ---------------------------------------------------------------------
 Center     Atomic     Atomic              Coordinates (Angstroms)
 Number     Number      Type              X           Y           Z 
 ---------------------------------------------------------------------
    1          6             0        0.020023    0.536996   -0.108068
    2          7             0        0.048518   -0.211149    1.173252
    3          1             0       -0.498483    1.676625   -0.042294
    4          1             0        0.110502    0.144029    2.125739
    5          8             0        0.008949   -0.275256   -1.143052
    6          1             0       -0.667422   -0.916141    1.044420
 ---------------------------------------------------------------------

 Entering Gaussian System  

                          Input orientation:   
 ---------------------------------------------------------------------
 Center     Atomic     Atomic              Coordinates (Angstroms)
 Number     Number      Type              X           Y           Z 
 ---------------------------------------------------------------------
    1          6             0        0.025219    0.528920   -0.105160
    2          7             0        0.040829   -0.204263    1.167350
    3          1             0       -0.531306    1.681499   -0.038406
    4          1             0        0.171407    0.119228    2.130126
    5          8             0        0.009304   -0.273882   -1.139481
    6          1             0       -0.655931   -0.917475    1.026853
 ---------------------------------------------------------------------

 Entering Gaussian System  

                          Input orientation:   
 ---------------------------------------------------------------------
 Center     Atomic     Atomic              Coordinates (Angstroms)
 Number     Number      Type              X           Y           Z 
 ---------------------------------------------------------------------
    1          6             0        0.028695    0.526447   -0.097342
    2          7             0        0.033463   -0.197738    1.159766
    3          1             0       -0.556377    1.650477   -0.046098
    4          1             0        0.232120    0.100684    2.127584
    5          8             0        0.010113   -0.273534   -1.137662
    6          1             0       -0.643220   -0.934631    1.020445
 ---------------------------------------------------------------------

 Entering Gaussian System  

                          Input orientation:   
 ---------------------------------------------------------------------
 Center     Atomic     Atomic              Coordinates (Angstroms)
 Number     Number      Type              X           Y           Z 
 ---------------------------------------------------------------------
    1          6             0        0.030942    0.528867   -0.087107
    2          7             0        0.026532   -0.193259    1.150679
    3          1             0       -0.574470    1.586202   -0.063994
    4          1             0        0.289485    0.099158    2.132042
    5          8             0        0.011129   -0.273419   -1.137134
    6          1             0       -0.628813   -0.961734    1.029818
 ---------------------------------------------------------------------

 Entering Gaussian System  

                          Input orientation:   
 ---------------------------------------------------------------------
 Center     Atomic     Atomic              Coordinates (Angstroms)
 Number     Number      Type              X           Y           Z 
 ---------------------------------------------------------------------
    1          6             0        0.032803    0.536028   -0.074889
    2          7             0        0.019553   -0.192120    1.141523
    3          1             0       -0.587232    1.507393   -0.097806
    4          1             0        0.343372    0.112008    2.126512
    5          8             0        0.012061   -0.273393   -1.137697
    6          1             0       -0.609682   -0.997349    1.059741
 ---------------------------------------------------------------------

 Entering Gaussian System  

                          Input orientation:   
 ---------------------------------------------------------------------
 Center     Atomic     Atomic              Coordinates (Angstroms)
 Number     Number      Type              X           Y           Z 
 ---------------------------------------------------------------------
    1          6             0        0.035065    0.547350   -0.060067
    2          7             0        0.012066   -0.193680    1.132441
    3          1             0       -0.596464    1.422310   -0.136538
    4          1             0        0.394056    0.143647    2.117236
    5          8             0        0.012657   -0.274265   -1.140737
    6          1             0       -0.583251   -1.043319    1.105598
 ---------------------------------------------------------------------

 Entering Gaussian System  

                          Input orientation:   
 ---------------------------------------------------------------------
 Center     Atomic     Atomic              Coordinates (Angstroms)
 Number     Number      Type              X           Y           Z 
 ---------------------------------------------------------------------
    1          6             0        0.037549    0.559462   -0.043087
    2          7             0        0.004428   -0.195057    1.124156
    3          1             0       -0.602534    1.340776   -0.171823
    4          1             0        0.440564    0.178011    2.093374
    5          8             0        0.012974   -0.275857   -1.145506
    6          1             0       -0.551937   -1.096097    1.153234
 ---------------------------------------------------------------------

 Entering Gaussian System  

                          Input orientation:   
 ---------------------------------------------------------------------
 Center     Atomic     Atomic              Coordinates (Angstroms)
 Number     Number      Type              X           Y           Z 
 ---------------------------------------------------------------------
    1          6             0        0.040636    0.570422   -0.025929
    2          7             0       -0.002899   -0.194967    1.117588
    3          1             0       -0.608978    1.266680   -0.200221
    4          1             0        0.481224    0.197031    2.041485
    5          8             0        0.012922   -0.277742   -1.150005
    6          1             0       -0.520072   -1.142971    1.191772
 ---------------------------------------------------------------------

 Entering Gaussian System  

                          Input orientation:   
 ---------------------------------------------------------------------
 Center     Atomic     Atomic              Coordinates (Angstroms)
 Number     Number      Type              X           Y           Z 
 ---------------------------------------------------------------------
    1          6             0        0.045477    0.577893   -0.008299
    2          7             0       -0.010145   -0.192944    1.113633
    3          1             0       -0.620272    1.224494   -0.222260
    4          1             0        0.515394    0.194140    1.958179
    5          8             0        0.012157   -0.280005   -1.154704
    6          1             0       -0.487628   -1.179133    1.216582
 ---------------------------------------------------------------------

 Entering Gaussian System  

                          Input orientation:   
 ---------------------------------------------------------------------
 Center     Atomic     Atomic              Coordinates (Angstroms)
 Number     Number      Type              X           Y           Z 
 ---------------------------------------------------------------------
    1          6             0        0.053500    0.580594    0.009037
    2          7             0       -0.018685   -0.191302    1.113279
    3          1             0       -0.641124    1.241337   -0.241810
    4          1             0        0.549259    0.173267    1.853319
    5          8             0        0.010400   -0.282579   -1.160562
    6          1             0       -0.449474   -1.189271    1.232309
 ---------------------------------------------------------------------

 Entering Gaussian System  

                          Input orientation:   
 ---------------------------------------------------------------------
 Center     Atomic     Atomic              Coordinates (Angstroms)
 Number     Number      Type              X           Y           Z 
 ---------------------------------------------------------------------
    1          6             0        0.062694    0.578582    0.023848
    2          7             0       -0.028762   -0.189840    1.114946
    3          1             0       -0.666383    1.303316   -0.256250
    4          1             0        0.591824    0.145136    1.751398
    5          8             0        0.008517   -0.284797   -1.166390
    6          1             0       -0.406158   -1.184261    1.241505
 ---------------------------------------------------------------------

 Entering Gaussian System  

                          Input orientation:   
 ---------------------------------------------------------------------
 Center     Atomic     Atomic              Coordinates (Angstroms)
 Number     Number      Type              X           Y           Z 
 ---------------------------------------------------------------------
    1          6             0        0.070577    0.573778    0.034050
    2          7             0       -0.039171   -0.188061    1.117083
    3          1             0       -0.691942    1.380095   -0.261377
    4          1             0        0.645928    0.117487    1.672201
    5          8             0        0.007439   -0.286250   -1.171141
    6          1             0       -0.366599   -1.177814    1.249966
 ---------------------------------------------------------------------

 Entering Gaussian System  

                          Input orientation:   
 ---------------------------------------------------------------------
 Center     Atomic     Atomic              Coordinates (Angstroms)
 Number     Number      Type              X           Y           Z 
 ---------------------------------------------------------------------
    1          6             0        0.075084    0.569250    0.039877
    2          7             0       -0.050305   -0.186135    1.119284
    3          1             0       -0.711184    1.443261   -0.256548
    4          1             0        0.720288    0.097295    1.631323
    5          8             0        0.008006   -0.287468   -1.175627
    6          1             0       -0.329332   -1.174269    1.257200
 ---------------------------------------------------------------------

 Entering Gaussian System  

                          Input orientation:   
 ---------------------------------------------------------------------
 Center     Atomic     Atomic              Coordinates (Angstroms)
 Number     Number      Type              X           Y           Z 
 ---------------------------------------------------------------------
    1          6             0        0.074222    0.567072    0.040796
    2          7             0       -0.061543   -0.183446    1.121392
    3          1             0       -0.714303    1.472018   -0.238251
    4          1             0        0.811898    0.086279    1.632951
    5          8             0        0.010652   -0.288780   -1.179703
    6          1             0       -0.292962   -1.182595    1.261738
 ---------------------------------------------------------------------

 Entering Gaussian System  

                          Input orientation:   
 ---------------------------------------------------------------------
 Center     Atomic     Atomic              Coordinates (Angstroms)
 Number     Number      Type              X           Y           Z 
 ---------------------------------------------------------------------
    1          6             0        0.067986    0.569253    0.035845
    2          7             0       -0.071659   -0.180306    1.124612
    3          1             0       -0.698157    1.458356   -0.204248
    4          1             0        0.908060    0.077088    1.662674
    5          8             0        0.014985   -0.290631   -1.182911
    6          1             0       -0.258712   -1.199991    1.263194
 ---------------------------------------------------------------------

 Entering Gaussian System  

                          Input orientation:   
 ---------------------------------------------------------------------
 Center     Atomic     Atomic              Coordinates (Angstroms)
 Number     Number      Type              X           Y           Z 
 ---------------------------------------------------------------------
    1          6             0        0.057834    0.575851    0.026601
    2          7             0       -0.079409   -0.177291    1.130414
    3          1             0       -0.665518    1.410804   -0.161430
    4          1             0        0.993276    0.059709    1.697707
    5          8             0        0.020130   -0.293196   -1.185775
    6          1             0       -0.229183   -1.214841    1.260353
 ---------------------------------------------------------------------

 Entering Gaussian System  

                          Input orientation:   
 ---------------------------------------------------------------------
 Center     Atomic     Atomic              Coordinates (Angstroms)
 Number     Number      Type              X           Y           Z 
 ---------------------------------------------------------------------
    1          6             0        0.044286    0.585011    0.013665
    2          7             0       -0.083346   -0.173873    1.139263
    3          1             0       -0.617536    1.353246   -0.116246
    4          1             0        1.054885    0.033262    1.725329
    5          8             0        0.025609   -0.296069   -1.188125
    6          1             0       -0.209321   -1.241886    1.256036
 ---------------------------------------------------------------------

 Entering Gaussian System  

                          Input orientation:   
 ---------------------------------------------------------------------
 Center     Atomic     Atomic              Coordinates (Angstroms)
 Number     Number      Type              X           Y           Z 
 ---------------------------------------------------------------------
    1          6             0        0.030413    0.593837   -0.000141
    2          7             0       -0.084308   -0.171606    1.151399
    3          1             0       -0.561095    1.314412   -0.079404
    4          1             0        1.086782   -0.001818    1.737871
    5          8             0        0.030257   -0.299032   -1.190703
    6          1             0       -0.192586   -1.257607    1.243458
 ---------------------------------------------------------------------

 Entering Gaussian System  

                          Input orientation:   
 ---------------------------------------------------------------------
 Center     Atomic     Atomic              Coordinates (Angstroms)
 Number     Number      Type              X           Y           Z 
 ---------------------------------------------------------------------
    1          6             0        0.020857    0.596030   -0.014065
    2          7             0       -0.086863   -0.171268    1.163461
    3          1             0       -0.529553    1.327913   -0.049800
    4          1             0        1.131377   -0.034634    1.762883
    5          8             0        0.034215   -0.300943   -1.192772
    6          1             0       -0.181982   -1.238781    1.219998
 ---------------------------------------------------------------------

 Entering Gaussian System  

                          Input orientation:   
 ---------------------------------------------------------------------
 Center     Atomic     Atomic              Coordinates (Angstroms)
 Number     Number      Type              X           Y           Z 
 ---------------------------------------------------------------------
    1          6             0        0.017249    0.590625   -0.028282
    2          7             0       -0.092282   -0.171865    1.173338
    3          1             0       -0.536083    1.393176   -0.023675
    4          1             0        1.202914   -0.069362    1.814435
    5          8             0        0.037558   -0.301677   -1.193819
    6          1             0       -0.181453   -1.184927    1.191086
 ---------------------------------------------------------------------

 Entering Gaussian System  

                          Input orientation:   
 ---------------------------------------------------------------------
 Center     Atomic     Atomic              Coordinates (Angstroms)
 Number     Number      Type              X           Y           Z 
 ---------------------------------------------------------------------
    1          6             0        0.015483    0.578597   -0.043650
    2          7             0       -0.100802   -0.169478    1.181095
    3          1             0       -0.562249    1.477350    0.015461
    4          1             0        1.308383   -0.111649    1.889649
    5          8             0        0.041554   -0.301388   -1.194012
    6          1             0       -0.184308   -1.121214    1.155127
 ---------------------------------------------------------------------

 Entering Gaussian System  

                          Input orientation:   
 ---------------------------------------------------------------------
 Center     Atomic     Atomic              Coordinates (Angstroms)
 Number     Number      Type              X           Y           Z 
 ---------------------------------------------------------------------
    1          6             0        0.011419    0.561922   -0.062735
    2          7             0       -0.112677   -0.160598    1.188707
    3          1             0       -0.583226    1.533575    0.087057
    4          1             0        1.447477   -0.168638    1.975476
    5          8             0        0.047124   -0.299977   -1.193227
    6          1             0       -0.176809   -1.067519    1.106889
 ---------------------------------------------------------------------

 Entering Gaussian System  

                          Input orientation:   
 ---------------------------------------------------------------------
 Center     Atomic     Atomic              Coordinates (Angstroms)
 Number     Number      Type              X           Y           Z 
 ---------------------------------------------------------------------
    1          6             0        0.001184    0.543117   -0.085137
    2          7             0       -0.127447   -0.141497    1.196397
    3          1             0       -0.578089    1.534227    0.200878
    4          1             0        1.617574   -0.249542    2.065652
    5          8             0        0.055139   -0.298229   -1.192410
    6          1             0       -0.151324   -1.056339    1.050051
 ---------------------------------------------------------------------

 Entering Gaussian System  

                          Input orientation:   
 ---------------------------------------------------------------------
 Center     Atomic     Atomic              Coordinates (Angstroms)
 Number     Number      Type              X           Y           Z 
 ---------------------------------------------------------------------
    1          6             0       -0.012062    0.521727   -0.102634
    2          7             0       -0.141515   -0.116082    1.202646
    3          1             0       -0.550286    1.526849    0.321607
    4          1             0        1.775418   -0.327970    2.141581
    5          8             0        0.063403   -0.296150   -1.193879
    6          1             0       -0.114115   -1.101796    0.998399
 ---------------------------------------------------------------------

 Entering Gaussian System  

                          Input orientation:   
 ---------------------------------------------------------------------
 Center     Atomic     Atomic              Coordinates (Angstroms)
 Number     Number      Type              X           Y           Z 
 ---------------------------------------------------------------------
    1          6             0       -0.029120    0.498819   -0.107683
    2          7             0       -0.154384   -0.089100    1.203023
    3          1             0       -0.502024    1.532860    0.417151
    4          1             0        1.925392   -0.391479    2.212299
    5          8             0        0.072400   -0.294076   -1.199120
    6          1             0       -0.072396   -1.179158    0.970287
 ---------------------------------------------------------------------

 Entering Gaussian System  

                          Input orientation:   
 ---------------------------------------------------------------------
 Center     Atomic     Atomic              Coordinates (Angstroms)
 Number     Number      Type              X           Y           Z 
 ---------------------------------------------------------------------
    1          6             0       -0.045914    0.483250   -0.113596
    2          7             0       -0.167395   -0.070402    1.202951
    3          1             0       -0.459133    1.496502    0.449811
    4          1             0        2.081092   -0.473674    2.286176
    5          8             0        0.081584   -0.290403   -1.200475
    6          1             0       -0.035155   -1.193181    0.956739
 ---------------------------------------------------------------------

 Entering Gaussian System  

                          Input orientation:   
 ---------------------------------------------------------------------
 Center     Atomic     Atomic              Coordinates (Angstroms)
 Number     Number      Type              X           Y           Z 
 ---------------------------------------------------------------------
    1          6             0       -0.063709    0.472670   -0.114134
    2          7             0       -0.179100   -0.058070    1.199860
    3          1             0       -0.415546    1.449059    0.431893
    4          1             0        2.233101   -0.557500    2.358121
    5          8             0        0.091055   -0.286238   -1.201597
    6          1             0       -0.005710   -1.173301    0.969898
 ---------------------------------------------------------------------

 Entering Gaussian System  

                          Input orientation:   
 ---------------------------------------------------------------------
 Center     Atomic     Atomic              Coordinates (Angstroms)
 Number     Number      Type              X           Y           Z 
 ---------------------------------------------------------------------
    1          6             0       -0.083037    0.466612   -0.107982
    2          7             0       -0.189393   -0.051456    1.193837
    3          1             0       -0.369465    1.405281    0.367399
    4          1             0        2.382030   -0.640932    2.429018
    5          8             0        0.100986   -0.282266   -1.203955
    6          1             0        0.015629   -1.128824    1.011301
 ---------------------------------------------------------------------

 Entering Gaussian System  

                          Input orientation:   
 ---------------------------------------------------------------------
 Center     Atomic     Atomic              Coordinates (Angstroms)
 Number     Number      Type              X           Y           Z 
 ---------------------------------------------------------------------
    1          6             0       -0.103032    0.464179   -0.097189
    2          7             0       -0.198702   -0.050552    1.185778
    3          1             0       -0.324773    1.379248    0.260851
    4          1             0        2.529897   -0.725346    2.499326
    5          8             0        0.111195   -0.278460   -1.207053
    6          1             0        0.029278   -1.062351    1.080068
 ---------------------------------------------------------------------

 Entering Gaussian System  

                          Input orientation:   
 ---------------------------------------------------------------------
 Center     Atomic     Atomic              Coordinates (Angstroms)
 Number     Number      Type              X           Y           Z 
 ---------------------------------------------------------------------
    1          6             0       -0.122849    0.463129   -0.084076
    2          7             0       -0.207429   -0.054004    1.176456
    3          1             0       -0.283967    1.395125    0.124761
    4          1             0        2.676993   -0.810621    2.568994
    5          8             0        0.121425   -0.274948   -1.210380
    6          1             0        0.037029   -0.988196    1.172537
 ---------------------------------------------------------------------

 Entering Gaussian System  

                          Input orientation:   
 ---------------------------------------------------------------------
 Center     Atomic     Atomic              Coordinates (Angstroms)
 Number     Number      Type              X           Y           Z 
 ---------------------------------------------------------------------
    1          6             0       -0.142261    0.460868   -0.070408
    2          7             0       -0.216396   -0.058957    1.166716
    3          1             0       -0.243584    1.471963   -0.026186
    4          1             0        2.823638   -0.899419    2.637235
    5          8             0        0.131496   -0.271914   -1.213806
    6          1             0        0.046671   -0.928591    1.282062
 ---------------------------------------------------------------------

 Entering Gaussian System  

                          Input orientation:   
 ---------------------------------------------------------------------
 Center     Atomic     Atomic              Coordinates (Angstroms)
 Number     Number      Type              X           Y           Z 
 ---------------------------------------------------------------------
    1          6             0       -0.163196    0.457044   -0.059851
    2          7             0       -0.225694   -0.062843    1.158842
    3          1             0       -0.191183    1.607575   -0.176833
    4          1             0        2.968442   -1.001301    2.702498
    5          8             0        0.141782   -0.269583   -1.217021
    6          1             0        0.065482   -0.899738    1.402049
 ---------------------------------------------------------------------

 Entering Gaussian System  

                          Input orientation:   
 ---------------------------------------------------------------------
 Center     Atomic     Atomic              Coordinates (Angstroms)
 Number     Number      Type              X           Y           Z 
 ---------------------------------------------------------------------
    1          6             0       -0.184620    0.454832   -0.052157
    2          7             0       -0.236458   -0.064158    1.151729
    3          1             0       -0.126980    1.741679   -0.321014
    4          1             0        3.113050   -1.112224    2.766854
    5          8             0        0.151921   -0.267632   -1.219708
    6          1             0        0.101253   -0.909226    1.531650
 ---------------------------------------------------------------------

 Entering Gaussian System  

                          Input orientation:   
 ---------------------------------------------------------------------
 Center     Atomic     Atomic              Coordinates (Angstroms)
 Number     Number      Type              X           Y           Z 
 ---------------------------------------------------------------------
    1          6             0       -0.204500    0.456868   -0.047560
    2          7             0       -0.248107   -0.064943    1.145224
    3          1             0       -0.066518    1.821245   -0.451338
    4          1             0        3.258301   -1.218789    2.831182
    5          8             0        0.161571   -0.265628   -1.221532
    6          1             0        0.141772   -0.927380    1.662180
 ---------------------------------------------------------------------

 Entering Gaussian System  

                          Input orientation:   
 ---------------------------------------------------------------------
 Center     Atomic     Atomic              Coordinates (Angstroms)
 Number     Number      Type              X           Y           Z 
 ---------------------------------------------------------------------
    1          6             0       -0.221728    0.461588   -0.047850
    2          7             0       -0.259770   -0.067377    1.140970
    3          1             0       -0.021584    1.853021   -0.552366
    4          1             0        3.404600   -1.317247    2.894478
    5          8             0        0.170642   -0.263884   -1.222267
    6          1             0        0.174582   -0.910770    1.774111
 ---------------------------------------------------------------------

 Entering Gaussian System  

                          Input orientation:   
 ---------------------------------------------------------------------
 Center     Atomic     Atomic              Coordinates (Angstroms)
 Number     Number      Type              X           Y           Z 
 ---------------------------------------------------------------------
    1          6             0       -0.234852    0.467293   -0.052747
    2          7             0       -0.270992   -0.072244    1.138749
    3          1             0       -0.005389    1.843582   -0.616937
    4          1             0        3.554775   -1.400857    2.957579
    5          8             0        0.179002   -0.262423   -1.221745
    6          1             0        0.188465   -0.841247    1.856479
 ---------------------------------------------------------------------

 Entering Gaussian System  

                          Input orientation:   
 ---------------------------------------------------------------------
 Center     Atomic     Atomic              Coordinates (Angstroms)
 Number     Number      Type              X           Y           Z 
 ---------------------------------------------------------------------
    1          6             0       -0.247643    0.475702   -0.062059
    2          7             0       -0.281001   -0.077106    1.139731
    3          1             0        0.002412    1.795637   -0.655050
    4          1             0        3.703962   -1.483689    3.020558
    5          8             0        0.187446   -0.262169   -1.220083
    6          1             0        0.189579   -0.747134    1.902545
 ---------------------------------------------------------------------

 Entering Gaussian System  

                          Input orientation:   
 ---------------------------------------------------------------------
 Center     Atomic     Atomic              Coordinates (Angstroms)
 Number     Number      Type              X           Y           Z 
 ---------------------------------------------------------------------
    1          6             0       -0.250471    0.477969   -0.064894
    2          7             0       -0.283238   -0.078213    1.140365
    3          1             0        0.002478    1.779091   -0.659725
    4          1             0        3.739113   -1.502853    3.035478
    5          8             0        0.189412   -0.262265   -1.219517
    6          1             0        0.188076   -0.721525    1.908281
 ---------------------------------------------------------------------

 Entering Gaussian System  

                          Input orientation:   
 ---------------------------------------------------------------------
 Center     Atomic     Atomic              Coordinates (Angstroms)
 Number     Number      Type              X           Y           Z 
 ---------------------------------------------------------------------
    1          6             0       -0.250471    0.477969   -0.064894
    2          7             0       -0.283238   -0.078213    1.140365
    3          1             0        0.002478    1.779091   -0.659725
    4          1             0        3.739113   -1.502853    3.035478
    5          8             0        0.189412   -0.262265   -1.219517
    6          1             0        0.188076   -0.721525    1.908281
 ---------------------------------------------------------------------

 Entering Gaussian System  

                          Input orientation:   
 ---------------------------------------------------------------------
 Center     Atomic     Atomic              Coordinates (Angstroms)
 Number     Number      Type              X           Y           Z 
 ---------------------------------------------------------------------
    1          6             0       -0.250471    0.477969   -0.064894
    2          7             0       -0.283238   -0.078213    1.140365
    3          1             0        0.002478    1.779091   -0.659725
    4          1             0        3.739113   -1.502853    3.035478
    5          8             0        0.189412   -0.262265   -1.219517
    6          1             0        0.188076   -0.721525    1.908281
 ---------------------------------------------------------------------

 Entering Gaussian System  

                          Input orientation:   
 ---------------------------------------------------------------------
 Center     Atomic     Atomic              Coordinates (Angstroms)
 Number     Number      Type              X           Y           Z 
 ---------------------------------------------------------------------
    1          6             0       -0.250471    0.477969   -0.064894
    2          7             0       -0.283238   -0.078213    1.140365
    3          1             0        0.002478    1.779091   -0.659725
    4          1             0        3.739113   -1.502853    3.035478
    5          8             0        0.189412   -0.262265   -1.219517
    6          1             0        0.188076   -0.721525    1.908281
 ---------------------------------------------------------------------

 Entering Gaussian System  

                          Input orientation:   
 ---------------------------------------------------------------------
 Center     Atomic     Atomic              Coordinates (Angstroms)
 Number     Number      Type              X           Y           Z 
 ---------------------------------------------------------------------
    1          6             0       -0.250471    0.477969   -0.064894
    2          7             0       -0.283238   -0.078213    1.140365
    3          1             0        0.002478    1.779091   -0.659725
    4          1             0        3.739113   -1.502853    3.035478
    5          8             0        0.189412   -0.262265   -1.219517
    6          1             0        0.188076   -0.721525    1.908281
 ---------------------------------------------------------------------

 Entering Gaussian System  

                          Input orientation:   
 ---------------------------------------------------------------------
 Center     Atomic     Atomic              Coordinates (Angstroms)
 Number     Number      Type              X           Y           Z 
 ---------------------------------------------------------------------
    1          6             0       -0.250471    0.477969   -0.064894
    2          7             0       -0.283238   -0.078213    1.140365
    3          1             0        0.002478    1.779091   -0.659725
    4          1             0        3.739113   -1.502853    3.035478
    5          8             0        0.189412   -0.262265   -1.219517
    6          1             0        0.188076   -0.721525    1.908281
 ---------------------------------------------------------------------

 Entering Gaussian System  

                          Input orientation:   
 ---------------------------------------------------------------------
 Center     Atomic     Atomic              Coordinates (Angstroms)
 Number     Number      Type              X           Y           Z 
 ---------------------------------------------------------------------
    1          6             0       -0.250471    0.477969   -0.064894
    2          7             0       -0.283238   -0.078213    1.140365
    3          1             0        0.002478    1.779091   -0.659725
    4          1             0        3.739113   -1.502853    3.035478
    5          8             0        0.189412   -0.262265   -1.219517
    6          1             0        0.188076   -0.721525    1.908281
 ---------------------------------------------------------------------

 Entering Gaussian System  

                          Input orientation:   
 ---------------------------------------------------------------------
 Center     Atomic     Atomic              Coordinates (Angstroms)
 Number     Number      Type              X           Y           Z 
 ---------------------------------------------------------------------
    1          6             0       -0.250471    0.477969   -0.064894
    2          7             0       -0.283238   -0.078213    1.140365
    3          1             0        0.002478    1.779091   -0.659725
    4          1             0        3.739113   -1.502853    3.035478
    5          8             0        0.189412   -0.262265   -1.219517
    6          1             0        0.188076   -0.721525    1.908281
 ---------------------------------------------------------------------

 Entering Gaussian System  

                          Input orientation:   
 ---------------------------------------------------------------------
 Center     Atomic     Atomic              Coordinates (Angstroms)
 Number     Number      Type              X           Y           Z 
 ---------------------------------------------------------------------
    1          6             0       -0.250471    0.477969   -0.064894
    2          7             0       -0.283238   -0.078213    1.140365
    3          1             0        0.002478    1.779091   -0.659725
    4          1             0        3.739113   -1.502853    3.035478
    5          8             0        0.189412   -0.262265   -1.219517
    6          1             0        0.188076   -0.721525    1.908281
 ---------------------------------------------------------------------

 Entering Gaussian System  

                          Input orientation:   
 ---------------------------------------------------------------------
 Center     Atomic     Atomic              Coordinates (Angstroms)
 Number     Number      Type              X           Y           Z 
 ---------------------------------------------------------------------
    1          6             0       -0.250471    0.477969   -0.064894
    2          7             0       -0.283238   -0.078213    1.140365
    3          1             0        0.002478    1.779091   -0.659725
    4          1             0        3.739113   -1.502853    3.035478
    5          8             0        0.189412   -0.262265   -1.219517
    6          1             0        0.188076   -0.721525    1.908281
 ---------------------------------------------------------------------

 Entering Gaussian System  

                          Input orientation:   
 ---------------------------------------------------------------------
 Center     Atomic     Atomic              Coordinates (Angstroms)
 Number     Number      Type              X           Y           Z 
 ---------------------------------------------------------------------
    1          6             0       -0.250471    0.477969   -0.064894
    2          7             0       -0.283238   -0.078213    1.140365
    3          1             0        0.002478    1.779091   -0.659725
    4          1             0        3.739113   -1.502853    3.035478
    5          8             0        0.189412   -0.262265   -1.219517
    6          1             0        0.188076   -0.721525    1.908281
 ---------------------------------------------------------------------

 Entering Gaussian System  

                          Input orientation:   
 ---------------------------------------------------------------------
 Center     Atomic     Atomic              Coordinates (Angstroms)
 Number     Number      Type              X           Y           Z 
 ---------------------------------------------------------------------
    1          6             0       -0.250471    0.477969   -0.064894
    2          7             0       -0.283238   -0.078213    1.140365
    3          1             0        0.002478    1.779091   -0.659725
    4          1             0        3.739113   -1.502853    3.035478
    5          8             0        0.189412   -0.262265   -1.219517
    6          1             0        0.188076   -0.721525    1.908281
 ---------------------------------------------------------------------

 Entering Gaussian System  

                          Input orientation:   
 ---------------------------------------------------------------------
 Center     Atomic     Atomic              Coordinates (Angstroms)
 Number     Number      Type              X           Y           Z 
 ---------------------------------------------------------------------
    1          6             0       -0.250471    0.477969   -0.064894
    2          7             0       -0.283238   -0.078213    1.140365
    3          1             0        0.002478    1.779091   -0.659725
    4          1             0        3.739113   -1.502853    3.035478
    5          8             0        0.189412   -0.262265   -1.219517
    6          1             0        0.188076   -0.721525    1.908281
 ---------------------------------------------------------------------

 Entering Gaussian System  

                          Input orientation:   
 ---------------------------------------------------------------------
 Center     Atomic     Atomic              Coordinates (Angstroms)
 Number     Number      Type              X           Y           Z 
 ---------------------------------------------------------------------
    1          6             0       -0.250471    0.477969   -0.064894
    2          7             0       -0.283238   -0.078213    1.140365
    3          1             0        0.002478    1.779091   -0.659725
    4          1             0        3.739113   -1.502853    3.035478
    5          8             0        0.189412   -0.262265   -1.219517
    6          1             0        0.188076   -0.721525    1.908281
 ---------------------------------------------------------------------

 Entering Gaussian System  

                          Input orientation:   
 ---------------------------------------------------------------------
 Center     Atomic     Atomic              Coordinates (Angstroms)
 Number     Number      Type              X           Y           Z 
 ---------------------------------------------------------------------
    1          6             0       -0.250471    0.477969   -0.064894
    2          7             0       -0.283238   -0.078213    1.140365
    3          1             0        0.002478    1.779091   -0.659725
    4          1             0        3.739113   -1.502853    3.035478
    5          8             0        0.189412   -0.262265   -1.219517
    6          1             0        0.188076   -0.721525    1.908281
 ---------------------------------------------------------------------

 Entering Gaussian System  

                          Input orientation:   
 ---------------------------------------------------------------------
 Center     Atomic     Atomic              Coordinates (Angstroms)
 Number     Number      Type              X           Y           Z 
 ---------------------------------------------------------------------
    1          6             0       -0.250471    0.477969   -0.064894
    2          7             0       -0.283238   -0.078213    1.140365
    3          1             0        0.002478    1.779091   -0.659725
    4          1             0        3.739113   -1.502853    3.035478
    5          8             0        0.189412   -0.262265   -1.219517
    6          1             0        0.188076   -0.721525    1.908281
 ---------------------------------------------------------------------

 Entering Gaussian System  

                          Input orientation:   
 ---------------------------------------------------------------------
 Center     Atomic     Atomic              Coordinates (Angstroms)
 Number     Number      Type              X           Y           Z 
 ---------------------------------------------------------------------
    1          6             0       -0.250471    0.477969   -0.064894
    2          7             0       -0.283238   -0.078213    1.140365
    3          1             0        0.002478    1.779091   -0.659725
    4          1             0        3.739113   -1.502853    3.035478
    5          8             0        0.189412   -0.262265   -1.219517
    6          1             0        0.188076   -0.721525    1.908281
 ---------------------------------------------------------------------

 Entering Gaussian System  

                          Input orientation:   
 ---------------------------------------------------------------------
 Center     Atomic     Atomic              Coordinates (Angstroms)
 Number     Number      Type              X           Y           Z 
 ---------------------------------------------------------------------
    1          6             0       -0.250471    0.477969   -0.064894
    2          7             0       -0.283238   -0.078213    1.140365
    3          1             0        0.002478    1.779091   -0.659725
    4          1             0        3.739113   -1.502853    3.035478
    5          8             0        0.189412   -0.262265   -1.219517
    6          1             0        0.188076   -0.721525    1.908281
 ---------------------------------------------------------------------

 Entering Gaussian System  

                          Input orientation:   
 ---------------------------------------------------------------------
 Center     Atomic     Atomic              Coordinates (Angstroms)
 Number     Number      Type              X           Y           Z 
 ---------------------------------------------------------------------
    1          6             0       -0.250471    0.477969   -0.064894
    2          7             0       -0.283238   -0.078213    1.140365
    3          1             0        0.002478    1.779091   -0.659725
    4          1             0        3.739113   -1.502853    3.035478
    5          8             0        0.189412   -0.262265   -1.219517
    6          1             0        0.188076   -0.721525    1.908281
 ---------------------------------------------------------------------

 Entering Gaussian System  

                          Input orientation:   
 ---------------------------------------------------------------------
 Center     Atomic     Atomic              Coordinates (Angstroms)
 Number     Number      Type              X           Y           Z 
 ---------------------------------------------------------------------
    1          6             0       -0.250471    0.477969   -0.064894
    2          7             0       -0.283238   -0.078213    1.140365
    3          1             0        0.002478    1.779091   -0.659725
    4          1             0        3.739113   -1.502853    3.035478
    5          8             0        0.189412   -0.262265   -1.219517
    6          1             0        0.188076   -0.721525    1.908281
 ---------------------------------------------------------------------

 Entering Gaussian System  

                          Input orientation:   
 ---------------------------------------------------------------------
 Center     Atomic     Atomic              Coordinates (Angstroms)
 Number     Number      Type              X           Y           Z 
 ---------------------------------------------------------------------
    1          6             0       -0.250471    0.477969   -0.064894
    2          7             0       -0.283238   -0.078213    1.140365
    3          1             0        0.002478    1.779091   -0.659725
    4          1             0        3.739113   -1.502853    3.035478
    5          8             0        0.189412   -0.262265   -1.219517
    6          1             0        0.188076   -0.721525    1.908281
 ---------------------------------------------------------------------

 Entering Gaussian System  

                          Input orientation:   
 ---------------------------------------------------------------------
 Center     Atomic     Atomic              Coordinates (Angstroms)
 Number     Number      Type              X           Y           Z 
 ---------------------------------------------------------------------
    1          6             0       -0.250471    0.477969   -0.064894
    2          7             0       -0.283238   -0.078213    1.140365
    3          1             0        0.002478    1.779091   -0.659725
    4          1             0        3.739113   -1.502853    3.035478
    5          8             0        0.189412   -0.262265   -1.219517
    6          1             0        0.188076   -0.721525    1.908281
 ---------------------------------------------------------------------

 Entering Gaussian System  

                          Input orientation:   
 ---------------------------------------------------------------------
 Center     Atomic     Atomic              Coordinates (Angstroms)
 Number     Number      Type              X           Y           Z 
 ---------------------------------------------------------------------
    1          6             0       -0.250471    0.477969   -0.064894
    2          7             0       -0.283238   -0.078213    1.140365
    3          1             0        0.002478    1.779091   -0.659725
    4          1             0        3.739113   -1.502853    3.035478
    5          8             0        0.189412   -0.262265   -1.219517
    6          1             0        0.188076   -0.721525    1.908281
 ---------------------------------------------------------------------

 Entering Gaussian System  

                          Input orientation:   
 ---------------------------------------------------------------------
 Center     Atomic     Atomic              Coordinates (Angstroms)
 Number     Number      Type              X           Y           Z 
 ---------------------------------------------------------------------
    1          6             0       -0.250471    0.477969   -0.064894
    2          7             0       -0.283238   -0.078213    1.140365
    3          1             0        0.002478    1.779091   -0.659725
    4          1             0        3.739113   -1.502853    3.035478
    5          8             0        0.189412   -0.262265   -1.219517
    6          1             0        0.188076   -0.721525    1.908281
 ---------------------------------------------------------------------

 Entering Gaussian System  

                          Input orientation:   
 ---------------------------------------------------------------------
 Center     Atomic     Atomic              Coordinates (Angstroms)
 Number     Number      Type              X           Y           Z 
 ---------------------------------------------------------------------
    1          6             0       -0.250471    0.477969   -0.064894
    2          7             0       -0.283238   -0.078213    1.140365
    3          1             0        0.002478    1.779091   -0.659725
    4          1             0        3.739113   -1.502853    3.035478
    5          8             0        0.189412   -0.262265   -1.219517
    6          1             0        0.188076   -0.721525    1.908281
 ---------------------------------------------------------------------

 Entering Gaussian System  

                          Input orientation:   
 ---------------------------------------------------------------------
 Center     Atomic     Atomic              Coordinates (Angstroms)
 Number     Number      Type              X           Y           Z 
 ---------------------------------------------------------------------
    1          6             0       -0.250471    0.477969   -0.064894
    2          7             0       -0.283238   -0.078213    1.140365
    3          1             0        0.002478    1.779091   -0.659725
    4          1             0        3.739113   -1.502853    3.035478
    5          8             0        0.189412   -0.262265   -1.219517
    6          1             0        0.188076   -0.721525    1.908281
 ---------------------------------------------------------------------

 Entering Gaussian System  

                          Input orientation:   
 ---------------------------------------------------------------------
 Center     Atomic     Atomic              Coordinates (Angstroms)
 Number     Number      Type              X           Y           Z 
 ---------------------------------------------------------------------
    1          6             0       -0.250471    0.477969   -0.064894
    2          7             0       -0.283238   -0.078213    1.140365
    3          1             0        0.002478    1.779091   -0.659725
    4          1             0        3.739113   -1.502853    3.035478
    5          8             0        0.189412   -0.262265   -1.219517
    6          1             0        0.188076   -0.721525    1.908281
 ---------------------------------------------------------------------

 Entering Gaussian System  

                          Input orientation:   
 ---------------------------------------------------------------------
 Center     Atomic     Atomic              Coordinates (Angstroms)
 Number     Number      Type              X           Y           Z 
 ---------------------------------------------------------------------
    1          6             0       -0.250471    0.477969   -0.064894
    2          7             0       -0.283238   -0.078213    1.140365
    3          1             0        0.002478    1.779091   -0.659725
    4          1             0        3.739113   -1.502853    3.035478
    5          8             0        0.189412   -0.262265   -1.219517
    6          1             0        0.188076   -0.721525    1.908281
 ---------------------------------------------------------------------

 Entering Gaussian System  

                          Input orientation:   
 ---------------------------------------------------------------------
 Center     Atomic     Atomic              Coordinates (Angstroms)
 Number     Number      Type              X           Y           Z 
 ---------------------------------------------------------------------
    1          6             0       -0.250471    0.477969   -0.064894
    2          7             0       -0.283238   -0.078213    1.140365
    3          1             0        0.002478    1.779091   -0.659725
    4          1             0        3.739113   -1.502853    3.035478
    5          8             0        0.189412   -0.262265   -1.219517
    6          1             0        0.188076   -0.721525    1.908281
 ---------------------------------------------------------------------

 Entering Gaussian System  

                          Input orientation:   
 ---------------------------------------------------------------------
 Center     Atomic     Atomic              Coordinates (Angstroms)
 Number     Number      Type              X           Y           Z 
 ---------------------------------------------------------------------
    1          6             0       -0.250471    0.477969   -0.064894
    2          7             0       -0.283238   -0.078213    1.140365
    3          1             0        0.002478    1.779091   -0.659725
    4          1             0        3.739113   -1.502853    3.035478
    5          8             0        0.189412   -0.262265   -1.219517
    6          1             0        0.188076   -0.721525    1.908281
 ---------------------------------------------------------------------
