
 Entering Gaussian System  

                          Input orientation:   
 ---------------------------------------------------------------------
 Center     Atomic     Atomic              Coordinates (Angstroms)
 Number     Number      Type              X           Y           Z 
 ---------------------------------------------------------------------
    1          6             0        0.000000    0.401721   -0.096031
    2          7             0        0.000000   -0.162504    1.145371
    3          1             0        0.000000    1.541283   -0.009698
    4          1             0        0.000000    0.374796    1.979555
    5          8             0        0.000000   -0.207339   -1.131411
    6          1             0        0.000000   -1.153754    1.217289
 ---------------------------------------------------------------------

 Entering Gaussian System  

                          Input orientation:   
 ---------------------------------------------------------------------
 Center     Atomic     Atomic              Coordinates (Angstroms)
 Number     Number      Type              X           Y           Z 
 ---------------------------------------------------------------------
    1          6             0       -0.004835    0.410489   -0.101592
    2          7             0        0.012426   -0.166089    1.144828
    3          1             0       -0.058839    1.572291    0.043235
    4          1             0        0.012170    0.386953    1.968307
    5          8             0        0.003880   -0.212241   -1.131052
    6          1             0       -0.130121   -1.173796    1.243711
 ---------------------------------------------------------------------

 Entering Gaussian System  

                          Input orientation:   
 ---------------------------------------------------------------------
 Center     Atomic     Atomic              Coordinates (Angstroms)
 Number     Number      Type              X           Y           Z 
 ---------------------------------------------------------------------
    1          6             0       -0.013601    0.410559   -0.088302
    2          7             0        0.017334   -0.166459    1.136940
    3          1             0       -0.045906    1.612343    0.025190
    4          1             0        0.019313    0.399879    1.950345
    5          8             0        0.007148   -0.214488   -1.132239
    6          1             0       -0.165860   -1.186802    1.249805
 ---------------------------------------------------------------------

 Entering Gaussian System  

                          Input orientation:   
 ---------------------------------------------------------------------
 Center     Atomic     Atomic              Coordinates (Angstroms)
 Number     Number      Type              X           Y           Z 
 ---------------------------------------------------------------------
    1          6             0       -0.011446    0.415865   -0.071757
    2          7             0        0.013707   -0.168263    1.135067
    3          1             0       -0.037009    1.647369    0.017626
    4          1             0        0.020736    0.417492    1.942753
    5          8             0        0.006078   -0.219746   -1.143133
    6          1             0       -0.134416   -1.194149    1.266752
 ---------------------------------------------------------------------

 Entering Gaussian System  

                          Input orientation:   
 ---------------------------------------------------------------------
 Center     Atomic     Atomic              Coordinates (Angstroms)
 Number     Number      Type              X           Y           Z 
 ---------------------------------------------------------------------
    1          6             0       -0.010609    0.423405   -0.051472
    2          7             0        0.010822   -0.172192    1.133229
    3          1             0       -0.068922    1.696263    0.019251
    4          1             0        0.074551    0.447352    1.937809
    5          8             0        0.007958   -0.227204   -1.157830
    6          1             0       -0.155858   -1.189792    1.287166
 ---------------------------------------------------------------------

 Entering Gaussian System  

                          Input orientation:   
 ---------------------------------------------------------------------
 Center     Atomic     Atomic              Coordinates (Angstroms)
 Number     Number      Type              X           Y           Z 
 ---------------------------------------------------------------------
    1          6             0       -0.014337    0.437376   -0.031556
    2          7             0        0.011703   -0.178738    1.130845
    3          1             0       -0.080088    1.751399    0.026383
    4          1             0        0.106423    0.472797    1.928257
    5          8             0        0.010521   -0.237779   -1.171612
    6          1             0       -0.184968   -1.178020    1.304134
 ---------------------------------------------------------------------

 Entering Gaussian System  

                          Input orientation:   
 ---------------------------------------------------------------------
 Center     Atomic     Atomic              Coordinates (Angstroms)
 Number     Number      Type              X           Y           Z 
 ---------------------------------------------------------------------
    1          6             0       -0.021023    0.452979   -0.011409
    2          7             0        0.016408   -0.183559    1.130257
    3          1             0       -0.079523    1.809306    0.023174
    4          1             0        0.116014    0.480872    1.913838
    5          8             0        0.013379   -0.249119   -1.186000
    6          1             0       -0.226229   -1.182931    1.318219
 ---------------------------------------------------------------------

 Entering Gaussian System  

                          Input orientation:   
 ---------------------------------------------------------------------
 Center     Atomic     Atomic              Coordinates (Angstroms)
 Number     Number      Type              X           Y           Z 
 ---------------------------------------------------------------------
    1          6             0       -0.025948    0.467696    0.006560
    2          7             0        0.021159   -0.186055    1.129853
    3          1             0       -0.080354    1.858635    0.013017
    4          1             0        0.115193    0.482182    1.897752
    5          8             0        0.015329   -0.259229   -1.198381
    6          1             0       -0.262919   -1.213809    1.332482
 ---------------------------------------------------------------------

 Entering Gaussian System  

                          Input orientation:   
 ---------------------------------------------------------------------
 Center     Atomic     Atomic              Coordinates (Angstroms)
 Number     Number      Type              X           Y           Z 
 ---------------------------------------------------------------------
    1          6             0       -0.030207    0.481625    0.021535
    2          7             0        0.026173   -0.187280    1.128947
    3          1             0       -0.083780    1.895377    0.005650
    4          1             0        0.111120    0.486554    1.882350
    5          8             0        0.017011   -0.268140   -1.208230
    6          1             0       -0.301111   -1.262429    1.345734
 ---------------------------------------------------------------------

 Entering Gaussian System  

                          Input orientation:   
 ---------------------------------------------------------------------
 Center     Atomic     Atomic              Coordinates (Angstroms)
 Number     Number      Type              X           Y           Z 
 ---------------------------------------------------------------------
    1          6             0       -0.034948    0.496467    0.033428
    2          7             0        0.029555   -0.189753    1.129627
    3          1             0       -0.078978    1.911587   -0.001781
    4          1             0        0.112300    0.488062    1.873251
    5          8             0        0.018776   -0.276603   -1.216809
    6          1             0       -0.325652   -1.288305    1.347277
 ---------------------------------------------------------------------

 Entering Gaussian System  

                          Input orientation:   
 ---------------------------------------------------------------------
 Center     Atomic     Atomic              Coordinates (Angstroms)
 Number     Number      Type              X           Y           Z 
 ---------------------------------------------------------------------
    1          6             0       -0.039474    0.509289    0.040642
    2          7             0        0.031492   -0.195219    1.131604
    3          1             0       -0.067899    1.929445   -0.003836
    4          1             0        0.115071    0.492000    1.867071
    5          8             0        0.020316   -0.283874   -1.222732
    6          1             0       -0.336939   -1.271502    1.336093
 ---------------------------------------------------------------------

 Entering Gaussian System  

                          Input orientation:   
 ---------------------------------------------------------------------
 Center     Atomic     Atomic              Coordinates (Angstroms)
 Number     Number      Type              X           Y           Z 
 ---------------------------------------------------------------------
    1          6             0       -0.043440    0.520298    0.043414
    2          7             0        0.032819   -0.201655    1.134346
    3          1             0       -0.054479    1.943546    0.001112
    4          1             0        0.115744    0.495082    1.865615
    5          8             0        0.021517   -0.290068   -1.226072
    6          1             0       -0.341287   -1.232130    1.314469
 ---------------------------------------------------------------------

 Entering Gaussian System  

                          Input orientation:   
 ---------------------------------------------------------------------
 Center     Atomic     Atomic              Coordinates (Angstroms)
 Number     Number      Type              X           Y           Z 
 ---------------------------------------------------------------------
    1          6             0       -0.046396    0.529298    0.040791
    2          7             0        0.033320   -0.208501    1.137794
    3          1             0       -0.037600    1.951605    0.015015
    4          1             0        0.111550    0.498149    1.875896
    5          8             0        0.022103   -0.295047   -1.226603
    6          1             0       -0.335025   -1.176311    1.282049
 ---------------------------------------------------------------------

 Entering Gaussian System  

                          Input orientation:   
 ---------------------------------------------------------------------
 Center     Atomic     Atomic              Coordinates (Angstroms)
 Number     Number      Type              X           Y           Z 
 ---------------------------------------------------------------------
    1          6             0       -0.049562    0.535379    0.033153
    2          7             0        0.033452   -0.213958    1.140791
    3          1             0       -0.018866    1.957859    0.036296
    4          1             0        0.109222    0.501472    1.898565
    5          8             0        0.022765   -0.298435   -1.223957
    6          1             0       -0.326046   -1.128737    1.245469
 ---------------------------------------------------------------------

 Entering Gaussian System  

                          Input orientation:   
 ---------------------------------------------------------------------
 Center     Atomic     Atomic              Coordinates (Angstroms)
 Number     Number      Type              X           Y           Z 
 ---------------------------------------------------------------------
    1          6             0       -0.052308    0.538611    0.021825
    2          7             0        0.033345   -0.215434    1.142830
    3          1             0        0.000637    1.968383    0.055709
    4          1             0        0.104927    0.492383    1.924657
    5          8             0        0.023191   -0.300204   -1.218185
    6          1             0       -0.313792   -1.120076    1.214999
 ---------------------------------------------------------------------

 Entering Gaussian System  

                          Input orientation:   
 ---------------------------------------------------------------------
 Center     Atomic     Atomic              Coordinates (Angstroms)
 Number     Number      Type              X           Y           Z 
 ---------------------------------------------------------------------
    1          6             0       -0.054110    0.539404    0.007264
    2          7             0        0.032931   -0.212817    1.143936
    3          1             0        0.017813    1.977675    0.071343
    4          1             0        0.099352    0.471746    1.953334
    5          8             0        0.023279   -0.300303   -1.209513
    6          1             0       -0.299580   -1.152949    1.191201
 ---------------------------------------------------------------------

 Entering Gaussian System  

                          Input orientation:   
 ---------------------------------------------------------------------
 Center     Atomic     Atomic              Coordinates (Angstroms)
 Number     Number      Type              X           Y           Z 
 ---------------------------------------------------------------------
    1          6             0       -0.056026    0.539750   -0.009602
    2          7             0        0.032494   -0.207132    1.145369
    3          1             0        0.036246    1.965041    0.086646
    4          1             0        0.093203    0.439282    1.982349
    5          8             0        0.023362   -0.299369   -1.199386
    6          1             0       -0.284288   -1.205797    1.167214
 ---------------------------------------------------------------------

 Entering Gaussian System  

                          Input orientation:   
 ---------------------------------------------------------------------
 Center     Atomic     Atomic              Coordinates (Angstroms)
 Number     Number      Type              X           Y           Z 
 ---------------------------------------------------------------------
    1          6             0       -0.057916    0.540535   -0.027670
    2          7             0        0.032450   -0.199170    1.147523
    3          1             0        0.053527    1.927447    0.097865
    4          1             0        0.085394    0.389629    2.005101
    5          8             0        0.023428   -0.297691   -1.188353
    6          1             0       -0.271681   -1.265161    1.143513
 ---------------------------------------------------------------------

 Entering Gaussian System  

                          Input orientation:   
 ---------------------------------------------------------------------
 Center     Atomic     Atomic              Coordinates (Angstroms)
 Number     Number      Type              X           Y           Z 
 ---------------------------------------------------------------------
    1          6             0       -0.060102    0.541413   -0.046256
    2          7             0        0.032812   -0.191036    1.149888
    3          1             0        0.070291    1.868806    0.101220
    4          1             0        0.077210    0.327597    2.022601
    5          8             0        0.023616   -0.295070   -1.176285
    6          1             0       -0.262262   -1.309544    1.119743
 ---------------------------------------------------------------------

 Entering Gaussian System  

                          Input orientation:   
 ---------------------------------------------------------------------
 Center     Atomic     Atomic              Coordinates (Angstroms)
 Number     Number      Type              X           Y           Z 
 ---------------------------------------------------------------------
    1          6             0       -0.062104    0.542460   -0.063906
    2          7             0        0.032915   -0.184953    1.151340
    3          1             0        0.088531    1.795986    0.099166
    4          1             0        0.067929    0.259870    2.036995
    5          8             0        0.023663   -0.291984   -1.163577
    6          1             0       -0.249554   -1.314990    1.095860
 ---------------------------------------------------------------------

 Entering Gaussian System  

                          Input orientation:   
 ---------------------------------------------------------------------
 Center     Atomic     Atomic              Coordinates (Angstroms)
 Number     Number      Type              X           Y           Z 
 ---------------------------------------------------------------------
    1          6             0       -0.061776    0.540737   -0.078712
    2          7             0        0.031669   -0.180037    1.149023
    3          1             0        0.102153    1.736484    0.096573
    4          1             0        0.058485    0.198141    2.051762
    5          8             0        0.022917   -0.288319   -1.150120
    6          1             0       -0.228487   -1.299686    1.078711
 ---------------------------------------------------------------------

 Entering Gaussian System  

                          Input orientation:   
 ---------------------------------------------------------------------
 Center     Atomic     Atomic              Coordinates (Angstroms)
 Number     Number      Type              X           Y           Z 
 ---------------------------------------------------------------------
    1          6             0       -0.059097    0.536605   -0.089862
    2          7             0        0.029335   -0.176734    1.142492
    3          1             0        0.110337    1.692097    0.097215
    4          1             0        0.047820    0.151153    2.070867
    5          8             0        0.021368   -0.284503   -1.136575
    6          1             0       -0.200896   -1.265520    1.067594
 ---------------------------------------------------------------------

 Entering Gaussian System  

                          Input orientation:   
 ---------------------------------------------------------------------
 Center     Atomic     Atomic              Coordinates (Angstroms)
 Number     Number      Type              X           Y           Z 
 ---------------------------------------------------------------------
    1          6             0       -0.056904    0.531590   -0.096590
    2          7             0        0.026302   -0.174871    1.132432
    3          1             0        0.123826    1.655317    0.097375
    4          1             0        0.039128    0.116980    2.095080
    5          8             0        0.019906   -0.281023   -1.123805
    6          1             0       -0.166481   -1.215920    1.060512
 ---------------------------------------------------------------------

 Entering Gaussian System  

                          Input orientation:   
 ---------------------------------------------------------------------
 Center     Atomic     Atomic              Coordinates (Angstroms)
 Number     Number      Type              X           Y           Z 
 ---------------------------------------------------------------------
    1          6             0       -0.055154    0.525970   -0.099483
    2          7             0        0.022993   -0.173634    1.119525
    3          1             0        0.139987    1.623409    0.094373
    4          1             0        0.032216    0.100077    2.128457
    5          8             0        0.018588   -0.277719   -1.111936
    6          1             0       -0.129627   -1.169750    1.055571
 ---------------------------------------------------------------------

 Entering Gaussian System  

                          Input orientation:   
 ---------------------------------------------------------------------
 Center     Atomic     Atomic              Coordinates (Angstroms)
 Number     Number      Type              X           Y           Z 
 ---------------------------------------------------------------------
    1          6             0       -0.053421    0.519630   -0.099565
    2          7             0        0.019758   -0.173251    1.105918
    3          1             0        0.156020    1.612985    0.088612
    4          1             0        0.025026    0.092153    2.157513
    5          8             0        0.017273   -0.274952   -1.101121
    6          1             0       -0.093261   -1.125089    1.050659
 ---------------------------------------------------------------------

 Entering Gaussian System  

                          Input orientation:   
 ---------------------------------------------------------------------
 Center     Atomic     Atomic              Coordinates (Angstroms)
 Number     Number      Type              X           Y           Z 
 ---------------------------------------------------------------------
    1          6             0       -0.050869    0.511921   -0.097897
    2          7             0        0.016350   -0.173109    1.093612
    3          1             0        0.169922    1.644151    0.086735
    4          1             0        0.016180    0.084306    2.164667
    5          8             0        0.015654   -0.273222   -1.091501
    6          1             0       -0.055669   -1.085955    1.043814
 ---------------------------------------------------------------------

 Entering Gaussian System  

                          Input orientation:   
 ---------------------------------------------------------------------
 Center     Atomic     Atomic              Coordinates (Angstroms)
 Number     Number      Type              X           Y           Z 
 ---------------------------------------------------------------------
    1          6             0       -0.048886    0.504787   -0.092520
    2          7             0        0.012896   -0.171573    1.082525
    3          1             0        0.186142    1.690974    0.083726
    4          1             0        0.008694    0.080894    2.155871
    5          8             0        0.014227   -0.272734   -1.084414
    6          1             0       -0.017363   -1.073448    1.033113
 ---------------------------------------------------------------------

 Entering Gaussian System  

                          Input orientation:   
 ---------------------------------------------------------------------
 Center     Atomic     Atomic              Coordinates (Angstroms)
 Number     Number      Type              X           Y           Z 
 ---------------------------------------------------------------------
    1          6             0       -0.047025    0.500657   -0.082845
    2          7             0        0.009875   -0.166424    1.072182
    3          1             0        0.203546    1.729400    0.073619
    4          1             0       -0.002559    0.086788    2.141273
    5          8             0        0.012724   -0.273742   -1.079943
    6          1             0        0.020167   -1.124083    1.015306
 ---------------------------------------------------------------------

 Entering Gaussian System  

                          Input orientation:   
 ---------------------------------------------------------------------
 Center     Atomic     Atomic              Coordinates (Angstroms)
 Number     Number      Type              X           Y           Z 
 ---------------------------------------------------------------------
    1          6             0       -0.044222    0.499418   -0.071714
    2          7             0        0.006446   -0.159037    1.064249
    3          1             0        0.222064    1.763819    0.058633
    4          1             0       -0.018465    0.094363    2.116901
    5          8             0        0.010704   -0.275960   -1.077356
    6          1             0        0.063868   -1.218774    0.991222
 ---------------------------------------------------------------------

 Entering Gaussian System  

                          Input orientation:   
 ---------------------------------------------------------------------
 Center     Atomic     Atomic              Coordinates (Angstroms)
 Number     Number      Type              X           Y           Z 
 ---------------------------------------------------------------------
    1          6             0       -0.040546    0.502671   -0.057985
    2          7             0        0.002324   -0.153767    1.058643
    3          1             0        0.240666    1.786133    0.043091
    4          1             0       -0.035237    0.107703    2.077910
    5          8             0        0.008316   -0.279857   -1.077611
    6          1             0        0.113432   -1.304577    0.964130
 ---------------------------------------------------------------------

 Entering Gaussian System  

                          Input orientation:   
 ---------------------------------------------------------------------
 Center     Atomic     Atomic              Coordinates (Angstroms)
 Number     Number      Type              X           Y           Z 
 ---------------------------------------------------------------------
    1          6             0       -0.036778    0.510025   -0.042583
    2          7             0       -0.001238   -0.153805    1.055755
    3          1             0        0.252735    1.805685    0.031047
    4          1             0       -0.048866    0.128790    2.009751
    5          8             0        0.006154   -0.285075   -1.080102
    6          1             0        0.153925   -1.349474    0.940486
 ---------------------------------------------------------------------

 Entering Gaussian System  

                          Input orientation:   
 ---------------------------------------------------------------------
 Center     Atomic     Atomic              Coordinates (Angstroms)
 Number     Number      Type              X           Y           Z 
 ---------------------------------------------------------------------
    1          6             0       -0.032938    0.519888   -0.026836
    2          7             0       -0.003812   -0.160300    1.055349
    3          1             0        0.253214    1.843714    0.023796
    4          1             0       -0.056283    0.158171    1.911374
    5          8             0        0.004443   -0.291268   -1.083937
    6          1             0        0.178024   -1.345877    0.924965
 ---------------------------------------------------------------------

 Entering Gaussian System  

                          Input orientation:   
 ---------------------------------------------------------------------
 Center     Atomic     Atomic              Coordinates (Angstroms)
 Number     Number      Type              X           Y           Z 
 ---------------------------------------------------------------------
    1          6             0       -0.029025    0.532132   -0.011684
    2          7             0       -0.005259   -0.172255    1.053662
    3          1             0        0.245351    1.889677    0.022903
    4          1             0       -0.062393    0.202243    1.848795
    5          8             0        0.002973   -0.298787   -1.089377
    6          1             0        0.188818   -1.296355    0.917651
 ---------------------------------------------------------------------

 Entering Gaussian System  

                          Input orientation:   
 ---------------------------------------------------------------------
 Center     Atomic     Atomic              Coordinates (Angstroms)
 Number     Number      Type              X           Y           Z 
 ---------------------------------------------------------------------
    1          6             0       -0.025415    0.547478    0.004224
    2          7             0       -0.005402   -0.186256    1.047750
    3          1             0        0.229214    1.924760    0.029833
    4          1             0       -0.066082    0.262126    1.856022
    5          8             0        0.001916   -0.308166   -1.097171
    6          1             0        0.184356   -1.230765    0.919776
 ---------------------------------------------------------------------

 Entering Gaussian System  

                          Input orientation:   
 ---------------------------------------------------------------------
 Center     Atomic     Atomic              Coordinates (Angstroms)
 Number     Number      Type              X           Y           Z 
 ---------------------------------------------------------------------
    1          6             0       -0.021714    0.564512    0.018568
    2          7             0       -0.003959   -0.198741    1.038866
    3          1             0        0.203710    1.932022    0.042712
    4          1             0       -0.070704    0.332785    1.927718
    5          8             0        0.001068   -0.317871   -1.106167
    6          1             0        0.163755   -1.184105    0.930521
 ---------------------------------------------------------------------

 Entering Gaussian System  

                          Input orientation:   
 ---------------------------------------------------------------------
 Center     Atomic     Atomic              Coordinates (Angstroms)
 Number     Number      Type              X           Y           Z 
 ---------------------------------------------------------------------
    1          6             0       -0.017277    0.582656    0.032068
    2          7             0       -0.001394   -0.208930    1.030779
    3          1             0        0.168971    1.917801    0.059677
    4          1             0       -0.077351    0.396643    2.005408
    5          8             0        0.000142   -0.327485   -1.116322
    6          1             0        0.131242   -1.155757    0.948550
 ---------------------------------------------------------------------

 Entering Gaussian System  

                          Input orientation:   
 ---------------------------------------------------------------------
 Center     Atomic     Atomic              Coordinates (Angstroms)
 Number     Number      Type              X           Y           Z 
 ---------------------------------------------------------------------
    1          6             0       -0.012327    0.601082    0.043675
    2          7             0        0.001538   -0.215986    1.025917
    3          1             0        0.129415    1.879993    0.078177
    4          1             0       -0.084323    0.446342    2.069024
    5          8             0       -0.000857   -0.336339   -1.127119
    6          1             0        0.093812   -1.148611    0.967074
 ---------------------------------------------------------------------

 Entering Gaussian System  

                          Input orientation:   
 ---------------------------------------------------------------------
 Center     Atomic     Atomic              Coordinates (Angstroms)
 Number     Number      Type              X           Y           Z 
 ---------------------------------------------------------------------
    1          6             0       -0.005615    0.616920    0.049798
    2          7             0        0.002944   -0.220126    1.025646
    3          1             0        0.085289    1.842161    0.096309
    4          1             0       -0.086423    0.479714    2.119049
    5          8             0       -0.002304   -0.343534   -1.136357
    6          1             0        0.063438   -1.161167    0.976353
 ---------------------------------------------------------------------

 Entering Gaussian System  

                          Input orientation:   
 ---------------------------------------------------------------------
 Center     Atomic     Atomic              Coordinates (Angstroms)
 Number     Number      Type              X           Y           Z 
 ---------------------------------------------------------------------
    1          6             0        0.002914    0.632045    0.052459
    2          7             0        0.002724   -0.221287    1.029545
    3          1             0        0.036103    1.793408    0.117174
    4          1             0       -0.082699    0.493208    2.155425
    5          8             0       -0.004184   -0.350115   -1.145338
    6          1             0        0.040150   -1.185529    0.975787
 ---------------------------------------------------------------------

 Entering Gaussian System  

                          Input orientation:   
 ---------------------------------------------------------------------
 Center     Atomic     Atomic              Coordinates (Angstroms)
 Number     Number      Type              X           Y           Z 
 ---------------------------------------------------------------------
    1          6             0        0.010373    0.650170    0.054681
    2          7             0        0.002370   -0.218952    1.035818
    3          1             0       -0.011300    1.705634    0.139929
    4          1             0       -0.072993    0.491625    2.186190
    5          8             0       -0.005547   -0.357094   -1.155671
    6          1             0        0.015529   -1.233811    0.972650
 ---------------------------------------------------------------------

 Entering Gaussian System  

                          Input orientation:   
 ---------------------------------------------------------------------
 Center     Atomic     Atomic              Coordinates (Angstroms)
 Number     Number      Type              X           Y           Z 
 ---------------------------------------------------------------------
    1          6             0        0.017320    0.666808    0.054927
    2          7             0        0.002092   -0.216477    1.044144
    3          1             0       -0.058149    1.608017    0.159664
    4          1             0       -0.061090    0.489217    2.220588
    5          8             0       -0.006671   -0.362830   -1.166061
    6          1             0       -0.010597   -1.275405    0.964842
 ---------------------------------------------------------------------

 Entering Gaussian System  

                          Input orientation:   
 ---------------------------------------------------------------------
 Center     Atomic     Atomic              Coordinates (Angstroms)
 Number     Number      Type              X           Y           Z 
 ---------------------------------------------------------------------
    1          6             0        0.024605    0.677426    0.052413
    2          7             0        0.002224   -0.216418    1.053841
    3          1             0       -0.105855    1.531350    0.171049
    4          1             0       -0.053401    0.496618    2.268655
    5          8             0       -0.008006   -0.365926   -1.175529
    6          1             0       -0.038034   -1.284338    0.950873
 ---------------------------------------------------------------------

 Entering Gaussian System  

                          Input orientation:   
 ---------------------------------------------------------------------
 Center     Atomic     Atomic              Coordinates (Angstroms)
 Number     Number      Type              X           Y           Z 
 ---------------------------------------------------------------------
    1          6             0        0.031585    0.680489    0.045345
    2          7             0        0.003074   -0.218559    1.065184
    3          1             0       -0.152569    1.491813    0.174592
    4          1             0       -0.050120    0.508020    2.330632
    5          8             0       -0.009355   -0.366063   -1.183054
    6          1             0       -0.068203   -1.260771    0.931396
 ---------------------------------------------------------------------

 Entering Gaussian System  

                          Input orientation:   
 ---------------------------------------------------------------------
 Center     Atomic     Atomic              Coordinates (Angstroms)
 Number     Number      Type              X           Y           Z 
 ---------------------------------------------------------------------
    1          6             0        0.039965    0.673185    0.031357
    2          7             0        0.004296   -0.220942    1.078904
    3          1             0       -0.207483    1.511039    0.170352
    4          1             0       -0.049057    0.511505    2.396299
    5          8             0       -0.011077   -0.362442   -1.186909
    6          1             0       -0.103894   -1.220780    0.907173
 ---------------------------------------------------------------------

 Entering Gaussian System  

                          Input orientation:   
 ---------------------------------------------------------------------
 Center     Atomic     Atomic              Coordinates (Angstroms)
 Number     Number      Type              X           Y           Z 
 ---------------------------------------------------------------------
    1          6             0        0.049683    0.655901    0.011890
    2          7             0        0.005215   -0.220792    1.094183
    3          1             0       -0.268255    1.587376    0.156462
    4          1             0       -0.047685    0.487085    2.448394
    5          8             0       -0.013155   -0.355360   -1.186764
    6          1             0       -0.140146   -1.181229    0.886305
 ---------------------------------------------------------------------

 Entering Gaussian System  

                          Input orientation:   
 ---------------------------------------------------------------------
 Center     Atomic     Atomic              Coordinates (Angstroms)
 Number     Number      Type              X           Y           Z 
 ---------------------------------------------------------------------
    1          6             0        0.059720    0.632493   -0.009193
    2          7             0        0.006423   -0.218438    1.109667
    3          1             0       -0.328950    1.692822    0.135898
    4          1             0       -0.050645    0.445921    2.494105
    5          8             0       -0.015465   -0.346145   -1.185254
    6          1             0       -0.176276   -1.145541    0.873239
 ---------------------------------------------------------------------

 Entering Gaussian System  

                          Input orientation:   
 ---------------------------------------------------------------------
 Center     Atomic     Atomic              Coordinates (Angstroms)
 Number     Number      Type              X           Y           Z 
 ---------------------------------------------------------------------
    1          6             0        0.069360    0.606644   -0.028551
    2          7             0        0.008248   -0.216030    1.124497
    3          1             0       -0.382796    1.795264    0.118316
    4          1             0       -0.063681    0.413521    2.535446
    5          8             0       -0.018057   -0.335716   -1.185148
    6          1             0       -0.208571   -1.106557    0.872358
 ---------------------------------------------------------------------

 Entering Gaussian System  

                          Input orientation:   
 ---------------------------------------------------------------------
 Center     Atomic     Atomic              Coordinates (Angstroms)
 Number     Number      Type              X           Y           Z 
 ---------------------------------------------------------------------
    1          6             0        0.077082    0.581986   -0.045029
    2          7             0        0.010923   -0.212637    1.138884
    3          1             0       -0.425034    1.861590    0.096129
    4          1             0       -0.084066    0.390892    2.550213
    5          8             0       -0.020399   -0.323952   -1.185832
    6          1             0       -0.238083   -1.090305    0.887042
 ---------------------------------------------------------------------

 Entering Gaussian System  

                          Input orientation:   
 ---------------------------------------------------------------------
 Center     Atomic     Atomic              Coordinates (Angstroms)
 Number     Number      Type              X           Y           Z 
 ---------------------------------------------------------------------
    1          6             0        0.082632    0.559871   -0.058521
    2          7             0        0.013948   -0.207146    1.153005
    3          1             0       -0.454454    1.870182    0.062954
    4          1             0       -0.107897    0.374683    2.529880
    5          8             0       -0.022331   -0.310440   -1.186502
    6          1             0       -0.262460   -1.109978    0.915707
 ---------------------------------------------------------------------

 Entering Gaussian System  

                          Input orientation:   
 ---------------------------------------------------------------------
 Center     Atomic     Atomic              Coordinates (Angstroms)
 Number     Number      Type              X           Y           Z 
 ---------------------------------------------------------------------
    1          6             0        0.085216    0.540128   -0.069838
    2          7             0        0.017497   -0.199657    1.166035
    3          1             0       -0.468184    1.819650    0.020418
    4          1             0       -0.134594    0.362382    2.496117
    5          8             0       -0.023608   -0.295530   -1.186850
    6          1             0       -0.282024   -1.152646    0.951337
 ---------------------------------------------------------------------

 Entering Gaussian System  

                          Input orientation:   
 ---------------------------------------------------------------------
 Center     Atomic     Atomic              Coordinates (Angstroms)
 Number     Number      Type              X           Y           Z 
 ---------------------------------------------------------------------
    1          6             0        0.084795    0.522915   -0.078321
    2          7             0        0.021125   -0.190700    1.178286
    3          1             0       -0.465912    1.716260   -0.029196
    4          1             0       -0.161017    0.344868    2.445016
    5          8             0       -0.024145   -0.279949   -1.187294
    6          1             0       -0.294862   -1.198441    0.989933
 ---------------------------------------------------------------------

 Entering Gaussian System  

                          Input orientation:   
 ---------------------------------------------------------------------
 Center     Atomic     Atomic              Coordinates (Angstroms)
 Number     Number      Type              X           Y           Z 
 ---------------------------------------------------------------------
    1          6             0        0.082561    0.507870   -0.084888
    2          7             0        0.024159   -0.183582    1.187537
    3          1             0       -0.449723    1.579162   -0.085066
    4          1             0       -0.187717    0.331642    2.409813
    5          8             0       -0.024369   -0.264084   -1.187717
    6          1             0       -0.296455   -1.219603    1.037427
 ---------------------------------------------------------------------

 Entering Gaussian System  

                          Input orientation:   
 ---------------------------------------------------------------------
 Center     Atomic     Atomic              Coordinates (Angstroms)
 Number     Number      Type              X           Y           Z 
 ---------------------------------------------------------------------
    1          6             0        0.078561    0.493133   -0.088669
    2          7             0        0.026458   -0.179367    1.192101
    3          1             0       -0.415858    1.435147   -0.142952
    4          1             0       -0.218479    0.330020    2.410127
    5          8             0       -0.024496   -0.248541   -1.188709
    6          1             0       -0.281933   -1.203679    1.092363
 ---------------------------------------------------------------------

 Entering Gaussian System  

                          Input orientation:   
 ---------------------------------------------------------------------
 Center     Atomic     Atomic              Coordinates (Angstroms)
 Number     Number      Type              X           Y           Z 
 ---------------------------------------------------------------------
    1          6             0        0.074543    0.478458   -0.088404
    2          7             0        0.027862   -0.175885    1.196298
    3          1             0       -0.377301    1.303463   -0.196902
    4          1             0       -0.248218    0.317679    2.386571
    5          8             0       -0.024726   -0.234175   -1.191277
    6          1             0       -0.258835   -1.161215    1.149146
 ---------------------------------------------------------------------

 Entering Gaussian System  

                          Input orientation:   
 ---------------------------------------------------------------------
 Center     Atomic     Atomic              Coordinates (Angstroms)
 Number     Number      Type              X           Y           Z 
 ---------------------------------------------------------------------
    1          6             0        0.074872    0.463417   -0.083681
    2          7             0        0.028021   -0.172244    1.200511
    3          1             0       -0.357926    1.194422   -0.252956
    4          1             0       -0.274848    0.299295    2.331530
    5          8             0       -0.026051   -0.220751   -1.195228
    6          1             0       -0.236741   -1.118251    1.208115
 ---------------------------------------------------------------------

 Entering Gaussian System  

                          Input orientation:   
 ---------------------------------------------------------------------
 Center     Atomic     Atomic              Coordinates (Angstroms)
 Number     Number      Type              X           Y           Z 
 ---------------------------------------------------------------------
    1          6             0        0.081769    0.446351   -0.074919
    2          7             0        0.026771   -0.166847    1.206306
    3          1             0       -0.371148    1.126381   -0.313818
    4          1             0       -0.295891    0.269739    2.230828
    5          8             0       -0.028909   -0.207958   -1.200459
    6          1             0       -0.221978   -1.095388    1.267784
 ---------------------------------------------------------------------

 Entering Gaussian System  

                          Input orientation:   
 ---------------------------------------------------------------------
 Center     Atomic     Atomic              Coordinates (Angstroms)
 Number     Number      Type              X           Y           Z 
 ---------------------------------------------------------------------
    1          6             0        0.095115    0.424750   -0.061355
    2          7             0        0.024089   -0.159813    1.212508
    3          1             0       -0.415550    1.139951   -0.375621
    4          1             0       -0.312097    0.240216    2.106057
    5          8             0       -0.033311   -0.196594   -1.207877
    6          1             0       -0.213312   -1.100199    1.324248
 ---------------------------------------------------------------------

 Entering Gaussian System  

                          Input orientation:   
 ---------------------------------------------------------------------
 Center     Atomic     Atomic              Coordinates (Angstroms)
 Number     Number      Type              X           Y           Z 
 ---------------------------------------------------------------------
    1          6             0        0.117830    0.397734   -0.042164
    2          7             0        0.020079   -0.154901    1.217396
    3          1             0       -0.504778    1.263772   -0.452125
    4          1             0       -0.327329    0.224952    1.984369
    5          8             0       -0.040116   -0.186722   -1.217505
    6          1             0       -0.215849   -1.111835    1.378622
 ---------------------------------------------------------------------

 Entering Gaussian System  

                          Input orientation:   
 ---------------------------------------------------------------------
 Center     Atomic     Atomic              Coordinates (Angstroms)
 Number     Number      Type              X           Y           Z 
 ---------------------------------------------------------------------
    1          6             0        0.136911    0.376620   -0.023648
    2          7             0        0.017381   -0.151771    1.220221
    3          1             0       -0.569008    1.350874   -0.494745
    4          1             0       -0.357902    0.244964    1.897203
    5          8             0       -0.046567   -0.179540   -1.228562
    6          1             0       -0.208631   -1.124877    1.424017
 ---------------------------------------------------------------------

 Entering Gaussian System  

                          Input orientation:   
 ---------------------------------------------------------------------
 Center     Atomic     Atomic              Coordinates (Angstroms)
 Number     Number      Type              X           Y           Z 
 ---------------------------------------------------------------------
    1          6             0        0.145387    0.368553   -0.009139
    2          7             0        0.017160   -0.150313    1.221924
    3          1             0       -0.570440    1.308963   -0.481315
    4          1             0       -0.411170    0.306145    1.848430
    5          8             0       -0.051165   -0.175404   -1.240905
    6          1             0       -0.179048   -1.133970    1.458716
 ---------------------------------------------------------------------

 Entering Gaussian System  

                          Input orientation:   
 ---------------------------------------------------------------------
 Center     Atomic     Atomic              Coordinates (Angstroms)
 Number     Number      Type              X           Y           Z 
 ---------------------------------------------------------------------
    1          6             0        0.154178    0.363137    0.004600
    2          7             0        0.019141   -0.152489    1.220160
    3          1             0       -0.565239    1.271195   -0.450308
    4          1             0       -0.490603    0.415284    1.877114
    5          8             0       -0.056709   -0.173852   -1.254163
    6          1             0       -0.149379   -1.135206    1.470258
 ---------------------------------------------------------------------

 Entering Gaussian System  

                          Input orientation:   
 ---------------------------------------------------------------------
 Center     Atomic     Atomic              Coordinates (Angstroms)
 Number     Number      Type              X           Y           Z 
 ---------------------------------------------------------------------
    1          6             0        0.164389    0.358893    0.017781
    2          7             0        0.020377   -0.155723    1.219739
    3          1             0       -0.567860    1.255494   -0.414118
    4          1             0       -0.564676    0.522183    1.909591
    5          8             0       -0.062462   -0.174109   -1.267860
    6          1             0       -0.120480   -1.126827    1.467770
 ---------------------------------------------------------------------

 Entering Gaussian System  

                          Input orientation:   
 ---------------------------------------------------------------------
 Center     Atomic     Atomic              Coordinates (Angstroms)
 Number     Number      Type              X           Y           Z 
 ---------------------------------------------------------------------
    1          6             0        0.174215    0.357585    0.029190
    2          7             0        0.017852   -0.157130    1.226157
    3          1             0       -0.577479    1.242738   -0.380652
    4          1             0       -0.600294    0.571111    1.854496
    5          8             0       -0.066933   -0.175071   -1.280852
    6          1             0       -0.086363   -1.112631    1.470494
 ---------------------------------------------------------------------

 Entering Gaussian System  

                          Input orientation:   
 ---------------------------------------------------------------------
 Center     Atomic     Atomic              Coordinates (Angstroms)
 Number     Number      Type              X           Y           Z 
 ---------------------------------------------------------------------
    1          6             0        0.183701    0.358651    0.036582
    2          7             0        0.011359   -0.156578    1.240546
    3          1             0       -0.593335    1.241397   -0.341967
    4          1             0       -0.597163    0.562666    1.712181
    5          8             0       -0.070155   -0.176627   -1.293229
    6          1             0       -0.045238   -1.098534    1.482542
 ---------------------------------------------------------------------

 Entering Gaussian System  

                          Input orientation:   
 ---------------------------------------------------------------------
 Center     Atomic     Atomic              Coordinates (Angstroms)
 Number     Number      Type              X           Y           Z 
 ---------------------------------------------------------------------
    1          6             0        0.193399    0.361171    0.038676
    2          7             0        0.003574   -0.155194    1.257940
    3          1             0       -0.609163    1.260555   -0.282250
    4          1             0       -0.586036    0.537088    1.563230
    5          8             0       -0.073267   -0.179627   -1.305454
    6          1             0        0.001606   -1.093802    1.499168
 ---------------------------------------------------------------------

 Entering Gaussian System  

                          Input orientation:   
 ---------------------------------------------------------------------
 Center     Atomic     Atomic              Coordinates (Angstroms)
 Number     Number      Type              X           Y           Z 
 ---------------------------------------------------------------------
    1          6             0        0.202358    0.365479    0.035605
    2          7             0       -0.002197   -0.153127    1.273852
    3          1             0       -0.619444    1.279529   -0.201154
    4          1             0       -0.591353    0.516605    1.462233
    5          8             0       -0.076643   -0.183969   -1.316965
    6          1             0        0.044281   -1.103466    1.517279
 ---------------------------------------------------------------------

 Entering Gaussian System  

                          Input orientation:   
 ---------------------------------------------------------------------
 Center     Atomic     Atomic              Coordinates (Angstroms)
 Number     Number      Type              X           Y           Z 
 ---------------------------------------------------------------------
    1          6             0        0.210475    0.370087    0.029220
    2          7             0       -0.004510   -0.151841    1.287065
    3          1             0       -0.615062    1.290648   -0.112079
    4          1             0       -0.633924    0.514434    1.407244
    5          8             0       -0.081005   -0.187968   -1.327566
    6          1             0        0.087023   -1.121728    1.543939
 ---------------------------------------------------------------------

 Entering Gaussian System  

                          Input orientation:   
 ---------------------------------------------------------------------
 Center     Atomic     Atomic              Coordinates (Angstroms)
 Number     Number      Type              X           Y           Z 
 ---------------------------------------------------------------------
    1          6             0        0.216919    0.375995    0.020313
    2          7             0       -0.002648   -0.152079    1.297694
    3          1             0       -0.594146    1.277568   -0.028285
    4          1             0       -0.715683    0.526813    1.398799
    5          8             0       -0.086126   -0.191068   -1.337245
    6          1             0        0.126207   -1.138941    1.580675
 ---------------------------------------------------------------------

 Entering Gaussian System  

                          Input orientation:   
 ---------------------------------------------------------------------
 Center     Atomic     Atomic              Coordinates (Angstroms)
 Number     Number      Type              X           Y           Z 
 ---------------------------------------------------------------------
    1          6             0        0.220745    0.382786    0.007623
    2          7             0        0.002858   -0.152504    1.307736
    3          1             0       -0.559544    1.229853    0.046766
    4          1             0       -0.823025    0.534982    1.426028
    5          8             0       -0.091221   -0.192706   -1.345698
    6          1             0        0.157313   -1.148408    1.624256
 ---------------------------------------------------------------------

 Entering Gaussian System  

                          Input orientation:   
 ---------------------------------------------------------------------
 Center     Atomic     Atomic              Coordinates (Angstroms)
 Number     Number      Type              X           Y           Z 
 ---------------------------------------------------------------------
    1          6             0        0.219899    0.391886   -0.007856
    2          7             0        0.010199   -0.152626    1.317929
    3          1             0       -0.507486    1.156332    0.117102
    4          1             0       -0.933527    0.525533    1.478996
    5          8             0       -0.095042   -0.194537   -1.353354
    6          1             0        0.184087   -1.143101    1.665296
 ---------------------------------------------------------------------

 Entering Gaussian System  

                          Input orientation:   
 ---------------------------------------------------------------------
 Center     Atomic     Atomic              Coordinates (Angstroms)
 Number     Number      Type              X           Y           Z 
 ---------------------------------------------------------------------
    1          6             0        0.215244    0.402376   -0.024035
    2          7             0        0.016705   -0.153697    1.327925
    3          1             0       -0.440056    1.108964    0.188203
    4          1             0       -1.030965    0.499285    1.541930
    5          8             0       -0.097481   -0.198700   -1.359705
    6          1             0        0.217495   -1.113516    1.685966
 ---------------------------------------------------------------------

 Entering Gaussian System  

                          Input orientation:   
 ---------------------------------------------------------------------
 Center     Atomic     Atomic              Coordinates (Angstroms)
 Number     Number      Type              X           Y           Z 
 ---------------------------------------------------------------------
    1          6             0        0.207602    0.412212   -0.041006
    2          7             0        0.020740   -0.155845    1.336822
    3          1             0       -0.363688    1.110973    0.262857
    4          1             0       -1.101128    0.462405    1.610863
    5          8             0       -0.098333   -0.205151   -1.363460
    6          1             0        0.259582   -1.063588    1.680578
 ---------------------------------------------------------------------

 Entering Gaussian System  

                          Input orientation:   
 ---------------------------------------------------------------------
 Center     Atomic     Atomic              Coordinates (Angstroms)
 Number     Number      Type              X           Y           Z 
 ---------------------------------------------------------------------
    1          6             0        0.207207    0.416394   -0.057041
    2          7             0        0.024675   -0.157991    1.343164
    3          1             0       -0.322848    1.165461    0.313453
    4          1             0       -1.176294    0.419908    1.693639
    5          8             0       -0.101159   -0.210043   -1.365667
    6          1             0        0.288518   -1.017906    1.685196
 ---------------------------------------------------------------------

 Entering Gaussian System  

                          Input orientation:   
 ---------------------------------------------------------------------
 Center     Atomic     Atomic              Coordinates (Angstroms)
 Number     Number      Type              X           Y           Z 
 ---------------------------------------------------------------------
    1          6             0        0.221504    0.413042   -0.074306
    2          7             0        0.030152   -0.159090    1.347705
    3          1             0       -0.344430    1.270238    0.318540
    4          1             0       -1.285860    0.354046    1.787861
    5          8             0       -0.108846   -0.210511   -1.366203
    6          1             0        0.294782   -0.994140    1.736996
 ---------------------------------------------------------------------

 Entering Gaussian System  

                          Input orientation:   
 ---------------------------------------------------------------------
 Center     Atomic     Atomic              Coordinates (Angstroms)
 Number     Number      Type              X           Y           Z 
 ---------------------------------------------------------------------
    1          6             0        0.256395    0.396395   -0.093160
    2          7             0        0.040749   -0.158798    1.347325
    3          1             0       -0.425966    1.432702    0.282505
    4          1             0       -1.498358    0.272208    1.898941
    5          8             0       -0.125456   -0.203463   -1.365024
    6          1             0        0.288580   -0.992306    1.873141
 ---------------------------------------------------------------------

 Entering Gaussian System  

                          Input orientation:   
 ---------------------------------------------------------------------
 Center     Atomic     Atomic              Coordinates (Angstroms)
 Number     Number      Type              X           Y           Z 
 ---------------------------------------------------------------------
    1          6             0        0.290626    0.378464   -0.110259
    2          7             0        0.053720   -0.158347    1.344413
    3          1             0       -0.493731    1.584915    0.219853
    4          1             0       -1.740344    0.185810    2.013730
    5          8             0       -0.142911   -0.194560   -1.361960
    6          1             0        0.286250   -0.992005    2.016554
 ---------------------------------------------------------------------

 Entering Gaussian System  

                          Input orientation:   
 ---------------------------------------------------------------------
 Center     Atomic     Atomic              Coordinates (Angstroms)
 Number     Number      Type              X           Y           Z 
 ---------------------------------------------------------------------
    1          6             0        0.317256    0.362731   -0.124334
    2          7             0        0.068469   -0.158357    1.340433
    3          1             0       -0.532246    1.695754    0.140312
    4          1             0       -1.979678    0.102480    2.130375
    5          8             0       -0.158131   -0.185902   -1.356922
    6          1             0        0.282431   -0.969292    2.122495
 ---------------------------------------------------------------------

 Entering Gaussian System  

                          Input orientation:   
 ---------------------------------------------------------------------
 Center     Atomic     Atomic              Coordinates (Angstroms)
 Number     Number      Type              X           Y           Z 
 ---------------------------------------------------------------------
    1          6             0        0.331725    0.352661   -0.132783
    2          7             0        0.086706   -0.157581    1.336259
    3          1             0       -0.535036    1.750182    0.066434
    4          1             0       -2.206189    0.019418    2.250892
    5          8             0       -0.169252   -0.180867   -1.352397
    6          1             0        0.261462   -0.911317    2.162678
 ---------------------------------------------------------------------

 Entering Gaussian System  

                          Input orientation:   
 ---------------------------------------------------------------------
 Center     Atomic     Atomic              Coordinates (Angstroms)
 Number     Number      Type              X           Y           Z 
 ---------------------------------------------------------------------
    1          6             0        0.326848    0.352251   -0.133448
    2          7             0        0.104555   -0.153071    1.334625
    3          1             0       -0.493425    1.712409    0.002653
    4          1             0       -2.354004   -0.075460    2.360781
    5          8             0       -0.172088   -0.181716   -1.349312
    6          1             0        0.222082   -0.822912    2.098235
 ---------------------------------------------------------------------

 Entering Gaussian System  

                          Input orientation:   
 ---------------------------------------------------------------------
 Center     Atomic     Atomic              Coordinates (Angstroms)
 Number     Number      Type              X           Y           Z 
 ---------------------------------------------------------------------
    1          6             0        0.295830    0.365610   -0.130005
    2          7             0        0.119207   -0.142007    1.338151
    3          1             0       -0.399948    1.572853   -0.035229
    4          1             0       -2.366184   -0.201607    2.461793
    5          8             0       -0.162786   -0.190587   -1.347908
    6          1             0        0.158987   -0.729237    1.922831
 ---------------------------------------------------------------------

 Entering Gaussian System  

                          Input orientation:   
 ---------------------------------------------------------------------
 Center     Atomic     Atomic              Coordinates (Angstroms)
 Number     Number      Type              X           Y           Z 
 ---------------------------------------------------------------------
    1          6             0        0.245592    0.391854   -0.123448
    2          7             0        0.125666   -0.122944    1.344614
    3          1             0       -0.280129    1.358795   -0.071601
    4          1             0       -2.221782   -0.354850    2.568071
    5          8             0       -0.142850   -0.205915   -1.347068
    6          1             0        0.087676   -0.696159    1.671704
 ---------------------------------------------------------------------

 Entering Gaussian System  

                          Input orientation:   
 ---------------------------------------------------------------------
 Center     Atomic     Atomic              Coordinates (Angstroms)
 Number     Number      Type              X           Y           Z 
 ---------------------------------------------------------------------
    1          6             0        0.186933    0.420449   -0.112461
    2          7             0        0.129325   -0.077794    1.336373
    3          1             0       -0.149736    1.133806   -0.119587
    4          1             0       -2.013387   -0.527617    2.699079
    5          8             0       -0.118339   -0.220441   -1.344911
    6          1             0        0.008672   -1.035901    1.538148
 ---------------------------------------------------------------------

 Entering Gaussian System  

                          Input orientation:   
 ---------------------------------------------------------------------
 Center     Atomic     Atomic              Coordinates (Angstroms)
 Number     Number      Type              X           Y           Z 
 ---------------------------------------------------------------------
    1          6             0        0.136982    0.425520   -0.093663
    2          7             0        0.137235   -0.002593    1.305792
    3          1             0       -0.086612    1.086161   -0.188392
    4          1             0       -1.813416   -0.734332    2.861718
    5          8             0       -0.095557   -0.229367   -1.338987
    6          1             0       -0.130145   -1.745247    1.551419
 ---------------------------------------------------------------------

 Entering Gaussian System  

                          Input orientation:   
 ---------------------------------------------------------------------
 Center     Atomic     Atomic              Coordinates (Angstroms)
 Number     Number      Type              X           Y           Z 
 ---------------------------------------------------------------------
    1          6             0        0.106717    0.399324   -0.069849
    2          7             0        0.141114    0.066969    1.273175
    3          1             0       -0.118036    1.421043   -0.296110
    4          1             0       -1.601898   -0.944612    3.025751
    5          8             0       -0.077584   -0.237184   -1.331780
    6          1             0       -0.288161   -2.400185    1.550274
 ---------------------------------------------------------------------

 Entering Gaussian System  

                          Input orientation:   
 ---------------------------------------------------------------------
 Center     Atomic     Atomic              Coordinates (Angstroms)
 Number     Number      Type              X           Y           Z 
 ---------------------------------------------------------------------
    1          6             0        0.096820    0.392446   -0.062676
    2          7             0        0.142417    0.087072    1.263210
    3          1             0       -0.121798    1.507079   -0.326177
    4          1             0       -1.540810   -1.005618    3.072937
    5          8             0       -0.072088   -0.239511   -1.329418
    6          1             0       -0.332730   -2.585648    1.548682
 ---------------------------------------------------------------------

 Entering Gaussian System  

                          Input orientation:   
 ---------------------------------------------------------------------
 Center     Atomic     Atomic              Coordinates (Angstroms)
 Number     Number      Type              X           Y           Z 
 ---------------------------------------------------------------------
    1          6             0        0.096820    0.392446   -0.062676
    2          7             0        0.142417    0.087072    1.263210
    3          1             0       -0.121798    1.507079   -0.326177
    4          1             0       -1.540810   -1.005618    3.072937
    5          8             0       -0.072088   -0.239511   -1.329418
    6          1             0       -0.332730   -2.585648    1.548682
 ---------------------------------------------------------------------

 Entering Gaussian System  

                          Input orientation:   
 ---------------------------------------------------------------------
 Center     Atomic     Atomic              Coordinates (Angstroms)
 Number     Number      Type              X           Y           Z 
 ---------------------------------------------------------------------
    1          6             0        0.096820    0.392446   -0.062676
    2          7             0        0.142417    0.087072    1.263210
    3          1             0       -0.121798    1.507079   -0.326177
    4          1             0       -1.540810   -1.005618    3.072937
    5          8             0       -0.072088   -0.239511   -1.329418
    6          1             0       -0.332730   -2.585648    1.548682
 ---------------------------------------------------------------------

 Entering Gaussian System  

                          Input orientation:   
 ---------------------------------------------------------------------
 Center     Atomic     Atomic              Coordinates (Angstroms)
 Number     Number      Type              X           Y           Z 
 ---------------------------------------------------------------------
    1          6             0        0.096820    0.392446   -0.062676
    2          7             0        0.142417    0.087072    1.263210
    3          1             0       -0.121798    1.507079   -0.326177
    4          1             0       -1.540810   -1.005618    3.072937
    5          8             0       -0.072088   -0.239511   -1.329418
    6          1             0       -0.332730   -2.585648    1.548682
 ---------------------------------------------------------------------

 Entering Gaussian System  

                          Input orientation:   
 ---------------------------------------------------------------------
 Center     Atomic     Atomic              Coordinates (Angstroms)
 Number     Number      Type              X           Y           Z 
 ---------------------------------------------------------------------
    1          6             0        0.096820    0.392446   -0.062676
    2          7             0        0.142417    0.087072    1.263210
    3          1             0       -0.121798    1.507079   -0.326177
    4          1             0       -1.540810   -1.005618    3.072937
    5          8             0       -0.072088   -0.239511   -1.329418
    6          1             0       -0.332730   -2.585648    1.548682
 ---------------------------------------------------------------------

 Entering Gaussian System  

                          Input orientation:   
 ---------------------------------------------------------------------
 Center     Atomic     Atomic              Coordinates (Angstroms)
 Number     Number      Type              X           Y           Z 
 ---------------------------------------------------------------------
    1          6             0        0.096820    0.392446   -0.062676
    2          7             0        0.142417    0.087072    1.263210
    3          1             0       -0.121798    1.507079   -0.326177
    4          1             0       -1.540810   -1.005618    3.072937
    5          8             0       -0.072088   -0.239511   -1.329418
    6          1             0       -0.332730   -2.585648    1.548682
 ---------------------------------------------------------------------

 Entering Gaussian System  

                          Input orientation:   
 ---------------------------------------------------------------------
 Center     Atomic     Atomic              Coordinates (Angstroms)
 Number     Number      Type              X           Y           Z 
 ---------------------------------------------------------------------
    1          6             0        0.096820    0.392446   -0.062676
    2          7             0        0.142417    0.087072    1.263210
    3          1             0       -0.121798    1.507079   -0.326177
    4          1             0       -1.540810   -1.005618    3.072937
    5          8             0       -0.072088   -0.239511   -1.329418
    6          1             0       -0.332730   -2.585648    1.548682
 ---------------------------------------------------------------------
