
 Entering Gaussian System  

                          Input orientation:   
 ---------------------------------------------------------------------
 Center     Atomic     Atomic              Coordinates (Angstroms)
 Number     Number      Type              X           Y           Z 
 ---------------------------------------------------------------------
    1          6             0        0.000000    0.401721   -0.096031
    2          7             0        0.000000   -0.162504    1.145371
    3          1             0        0.000000    1.541283   -0.009698
    4          1             0        0.000000    0.374796    1.979555
    5          8             0        0.000000   -0.207339   -1.131411
    6          1             0        0.000000   -1.153754    1.217289
 ---------------------------------------------------------------------

 Entering Gaussian System  

                          Input orientation:   
 ---------------------------------------------------------------------
 Center     Atomic     Atomic              Coordinates (Angstroms)
 Number     Number      Type              X           Y           Z 
 ---------------------------------------------------------------------
    1          6             0       -0.020809    0.402723   -0.091521
    2          7             0        0.007791   -0.162865    1.145190
    3          1             0        0.077358    1.544960   -0.021427
    4          1             0       -0.010870    0.375558    1.971402
    5          8             0        0.005758   -0.207864   -1.133855
    6          1             0       -0.018268   -1.156798    1.224748
 ---------------------------------------------------------------------

 Entering Gaussian System  

                          Input orientation:   
 ---------------------------------------------------------------------
 Center     Atomic     Atomic              Coordinates (Angstroms)
 Number     Number      Type              X           Y           Z 
 ---------------------------------------------------------------------
    1          6             0       -0.024615    0.411921   -0.080533
    2          7             0        0.014471   -0.164539    1.146731
    3          1             0        0.095336    1.536660   -0.038045
    4          1             0       -0.055850    0.373350    1.972897
    5          8             0        0.005661   -0.212821   -1.142599
    6          1             0       -0.037423   -1.153934    1.226301
 ---------------------------------------------------------------------

 Entering Gaussian System  

                          Input orientation:   
 ---------------------------------------------------------------------
 Center     Atomic     Atomic              Coordinates (Angstroms)
 Number     Number      Type              X           Y           Z 
 ---------------------------------------------------------------------
    1          6             0       -0.028388    0.430660   -0.065360
    2          7             0        0.017079   -0.168844    1.146455
    3          1             0        0.112132    1.534871   -0.046974
    4          1             0       -0.069878    0.373016    1.974111
    5          8             0        0.006335   -0.223106   -1.153171
    6          1             0       -0.042221   -1.152039    1.224862
 ---------------------------------------------------------------------

 Entering Gaussian System  

                          Input orientation:   
 ---------------------------------------------------------------------
 Center     Atomic     Atomic              Coordinates (Angstroms)
 Number     Number      Type              X           Y           Z 
 ---------------------------------------------------------------------
    1          6             0       -0.035003    0.454702   -0.048800
    2          7             0        0.019530   -0.174963    1.147710
    3          1             0        0.137718    1.536572   -0.066010
    4          1             0       -0.074342    0.368402    1.972874
    5          8             0        0.008112   -0.235509   -1.165442
    6          1             0       -0.046828   -1.153684    1.225142
 ---------------------------------------------------------------------

 Entering Gaussian System  

                          Input orientation:   
 ---------------------------------------------------------------------
 Center     Atomic     Atomic              Coordinates (Angstroms)
 Number     Number      Type              X           Y           Z 
 ---------------------------------------------------------------------
    1          6             0       -0.043708    0.480027   -0.032594
    2          7             0        0.022230   -0.182162    1.149551
    3          1             0        0.173047    1.544269   -0.091753
    4          1             0       -0.078371    0.362127    1.968150
    5          8             0        0.010449   -0.248152   -1.177501
    6          1             0       -0.049037   -1.156164    1.228315
 ---------------------------------------------------------------------

 Entering Gaussian System  

                          Input orientation:   
 ---------------------------------------------------------------------
 Center     Atomic     Atomic              Coordinates (Angstroms)
 Number     Number      Type              X           Y           Z 
 ---------------------------------------------------------------------
    1          6             0       -0.054038    0.505385   -0.019389
    2          7             0        0.025099   -0.190008    1.150811
    3          1             0        0.209962    1.566620   -0.115618
    4          1             0       -0.074676    0.355129    1.965273
    5          8             0        0.013569   -0.260892   -1.186832
    6          1             0       -0.055943   -1.162420    1.228313
 ---------------------------------------------------------------------

 Entering Gaussian System  

                          Input orientation:   
 ---------------------------------------------------------------------
 Center     Atomic     Atomic              Coordinates (Angstroms)
 Number     Number      Type              X           Y           Z 
 ---------------------------------------------------------------------
    1          6             0       -0.068662    0.533010   -0.007114
    2          7             0        0.032835   -0.197596    1.151916
    3          1             0        0.268164    1.597340   -0.146155
    4          1             0       -0.103436    0.338260    1.968576
    5          8             0        0.016995   -0.274917   -1.194679
    6          1             0       -0.073153   -1.177381    1.218475
 ---------------------------------------------------------------------

 Entering Gaussian System  

                          Input orientation:   
 ---------------------------------------------------------------------
 Center     Atomic     Atomic              Coordinates (Angstroms)
 Number     Number      Type              X           Y           Z 
 ---------------------------------------------------------------------
    1          6             0       -0.078300    0.544338    0.010503
    2          7             0        0.041206   -0.197579    1.157804
    3          1             0        0.277197    1.560682   -0.107337
    4          1             0       -0.111089    0.360206    1.960473
    5          8             0        0.020361   -0.282640   -1.216486
    6          1             0       -0.129569   -1.175315    1.242139
 ---------------------------------------------------------------------

 Entering Gaussian System  

                          Input orientation:   
 ---------------------------------------------------------------------
 Center     Atomic     Atomic              Coordinates (Angstroms)
 Number     Number      Type              X           Y           Z 
 ---------------------------------------------------------------------
    1          6             0       -0.089408    0.553471    0.024620
    2          7             0        0.048551   -0.198110    1.167020
    3          1             0        0.301496    1.544455   -0.092994
    4          1             0       -0.119757    0.370835    1.959892
    5          8             0        0.023850   -0.288936   -1.236857
    6          1             0       -0.170372   -1.171234    1.255442
 ---------------------------------------------------------------------

 Entering Gaussian System  

                          Input orientation:   
 ---------------------------------------------------------------------
 Center     Atomic     Atomic              Coordinates (Angstroms)
 Number     Number      Type              X           Y           Z 
 ---------------------------------------------------------------------
    1          6             0       -0.101958    0.563585    0.035218
    2          7             0        0.046121   -0.199563    1.177669
    3          1             0        0.349727    1.569307   -0.108521
    4          1             0       -0.076117    0.358214    1.972995
    5          8             0        0.028492   -0.296226   -1.253265
    6          1             0       -0.152418   -1.168075    1.244046
 ---------------------------------------------------------------------

 Entering Gaussian System  

                          Input orientation:   
 ---------------------------------------------------------------------
 Center     Atomic     Atomic              Coordinates (Angstroms)
 Number     Number      Type              X           Y           Z 
 ---------------------------------------------------------------------
    1          6             0       -0.114830    0.577197    0.043577
    2          7             0        0.049892   -0.201117    1.184902
    3          1             0        0.391920    1.608693   -0.107340
    4          1             0       -0.068384    0.339298    1.995919
    5          8             0        0.032565   -0.306464   -1.265601
    6          1             0       -0.166003   -1.166624    1.215618
 ---------------------------------------------------------------------

 Entering Gaussian System  

                          Input orientation:   
 ---------------------------------------------------------------------
 Center     Atomic     Atomic              Coordinates (Angstroms)
 Number     Number      Type              X           Y           Z 
 ---------------------------------------------------------------------
    1          6             0       -0.128612    0.589271    0.048531
    2          7             0        0.061606   -0.201718    1.194365
    3          1             0        0.422785    1.603208   -0.081075
    4          1             0       -0.099006    0.329126    2.017767
    5          8             0        0.036391   -0.314722   -1.279439
    6          1             0       -0.225761   -1.155414    1.196628
 ---------------------------------------------------------------------

 Entering Gaussian System  

                          Input orientation:   
 ---------------------------------------------------------------------
 Center     Atomic     Atomic              Coordinates (Angstroms)
 Number     Number      Type              X           Y           Z 
 ---------------------------------------------------------------------
    1          6             0       -0.140764    0.595959    0.053596
    2          7             0        0.065902   -0.199721    1.204790
    3          1             0        0.445769    1.586298   -0.065776
    4          1             0       -0.076847    0.313453    2.046775
    5          8             0        0.041075   -0.320193   -1.293882
    6          1             0       -0.260114   -1.143432    1.176348
 ---------------------------------------------------------------------

 Entering Gaussian System  

                          Input orientation:   
 ---------------------------------------------------------------------
 Center     Atomic     Atomic              Coordinates (Angstroms)
 Number     Number      Type              X           Y           Z 
 ---------------------------------------------------------------------
    1          6             0       -0.151836    0.601527    0.058295
    2          7             0        0.070493   -0.196217    1.214321
    3          1             0        0.462530    1.553607   -0.056445
    4          1             0       -0.056587    0.290305    2.077520
    5          8             0        0.045464   -0.324604   -1.306811
    6          1             0       -0.298646   -1.132605    1.153069
 ---------------------------------------------------------------------

 Entering Gaussian System  

                          Input orientation:   
 ---------------------------------------------------------------------
 Center     Atomic     Atomic              Coordinates (Angstroms)
 Number     Number      Type              X           Y           Z 
 ---------------------------------------------------------------------
    1          6             0       -0.162833    0.607325    0.062270
    2          7             0        0.076513   -0.191847    1.222461
    3          1             0        0.482773    1.516084   -0.062127
    4          1             0       -0.051442    0.255401    2.110455
    5          8             0        0.049358   -0.328502   -1.316875
    6          1             0       -0.338495   -1.128102    1.125084
 ---------------------------------------------------------------------

 Entering Gaussian System  

                          Input orientation:   
 ---------------------------------------------------------------------
 Center     Atomic     Atomic              Coordinates (Angstroms)
 Number     Number      Type              X           Y           Z 
 ---------------------------------------------------------------------
    1          6             0       -0.172986    0.610491    0.066321
    2          7             0        0.081839   -0.186592    1.229698
    3          1             0        0.496562    1.475245   -0.076794
    4          1             0       -0.039112    0.220091    2.143445
    5          8             0        0.053276   -0.330609   -1.326110
    6          1             0       -0.379848   -1.129248    1.104521
 ---------------------------------------------------------------------

 Entering Gaussian System  

                          Input orientation:   
 ---------------------------------------------------------------------
 Center     Atomic     Atomic              Coordinates (Angstroms)
 Number     Number      Type              X           Y           Z 
 ---------------------------------------------------------------------
    1          6             0       -0.178035    0.611693    0.070273
    2          7             0        0.085896   -0.180184    1.235194
    3          1             0        0.485998    1.389943   -0.082567
    4          1             0       -0.022351    0.196564    2.169893
    5          8             0        0.055977   -0.330235   -1.334513
    6          1             0       -0.425141   -1.129703    1.093765
 ---------------------------------------------------------------------

 Entering Gaussian System  

                          Input orientation:   
 ---------------------------------------------------------------------
 Center     Atomic     Atomic              Coordinates (Angstroms)
 Number     Number      Type              X           Y           Z 
 ---------------------------------------------------------------------
    1          6             0       -0.179096    0.609635    0.073085
    2          7             0        0.087290   -0.171005    1.238725
    3          1             0        0.459782    1.219536   -0.056080
    4          1             0        0.006038    0.188775    2.198169
    5          8             0        0.057830   -0.326380   -1.343362
    6          1             0       -0.463391   -1.115750    1.096903
 ---------------------------------------------------------------------

 Entering Gaussian System  

                          Input orientation:   
 ---------------------------------------------------------------------
 Center     Atomic     Atomic              Coordinates (Angstroms)
 Number     Number      Type              X           Y           Z 
 ---------------------------------------------------------------------
    1          6             0       -0.186736    0.597212    0.075689
    2          7             0        0.087667   -0.162998    1.240399
    3          1             0        0.479582    1.132740   -0.037476
    4          1             0        0.030516    0.175596    2.220497
    5          8             0        0.060878   -0.320373   -1.349800
    6          1             0       -0.470171   -1.074362    1.103878
 ---------------------------------------------------------------------

 Entering Gaussian System  

                          Input orientation:   
 ---------------------------------------------------------------------
 Center     Atomic     Atomic              Coordinates (Angstroms)
 Number     Number      Type              X           Y           Z 
 ---------------------------------------------------------------------
    1          6             0       -0.205523    0.571386    0.080359
    2          7             0        0.087804   -0.155649    1.240175
    3          1             0        0.565883    1.157826   -0.039317
    4          1             0        0.051324    0.158970    2.226885
    5          8             0        0.066350   -0.311365   -1.354512
    6          1             0       -0.442043   -1.020188    1.121573
 ---------------------------------------------------------------------

 Entering Gaussian System  

                          Input orientation:   
 ---------------------------------------------------------------------
 Center     Atomic     Atomic              Coordinates (Angstroms)
 Number     Number      Type              X           Y           Z 
 ---------------------------------------------------------------------
    1          6             0       -0.232973    0.534342    0.086123
    2          7             0        0.086245   -0.145719    1.238298
    3          1             0        0.703945    1.245457   -0.057371
    4          1             0        0.080208    0.130371    2.207526
    5          8             0        0.073967   -0.298700   -1.356806
    6          1             0       -0.380933   -0.976810    1.152761
 ---------------------------------------------------------------------

 Entering Gaussian System  

                          Input orientation:   
 ---------------------------------------------------------------------
 Center     Atomic     Atomic              Coordinates (Angstroms)
 Number     Number      Type              X           Y           Z 
 ---------------------------------------------------------------------
    1          6             0       -0.261843    0.492191    0.091978
    2          7             0        0.077919   -0.130148    1.234254
    3          1             0        0.865757    1.300112   -0.088327
    4          1             0        0.139500    0.078064    2.108841
    5          8             0        0.082205   -0.280603   -1.353882
    6          1             0       -0.272675   -0.980530    1.222417
 ---------------------------------------------------------------------

 Entering Gaussian System  

                          Input orientation:   
 ---------------------------------------------------------------------
 Center     Atomic     Atomic              Coordinates (Angstroms)
 Number     Number      Type              X           Y           Z 
 ---------------------------------------------------------------------
    1          6             0       -0.291715    0.440947    0.093132
    2          7             0        0.061974   -0.107892    1.225954
    3          1             0        1.043946    1.274895   -0.136470
    4          1             0        0.241465    0.013228    1.946970
    5          8             0        0.091406   -0.252579   -1.341464
    6          1             0       -0.120716   -1.034000    1.336918
 ---------------------------------------------------------------------

 Entering Gaussian System  

                          Input orientation:   
 ---------------------------------------------------------------------
 Center     Atomic     Atomic              Coordinates (Angstroms)
 Number     Number      Type              X           Y           Z 
 ---------------------------------------------------------------------
    1          6             0       -0.322616    0.383859    0.084910
    2          7             0        0.042104   -0.085810    1.211739
    3          1             0        1.216466    1.184255   -0.195775
    4          1             0        0.385792   -0.004470    1.869551
    5          8             0        0.102201   -0.217777   -1.321632
    6          1             0        0.036252   -1.104715    1.454353
 ---------------------------------------------------------------------

 Entering Gaussian System  

                          Input orientation:   
 ---------------------------------------------------------------------
 Center     Atomic     Atomic              Coordinates (Angstroms)
 Number     Number      Type              X           Y           Z 
 ---------------------------------------------------------------------
    1          6             0       -0.357104    0.327202    0.070017
    2          7             0        0.011807   -0.069271    1.182647
    3          1             0        1.371525    1.095962   -0.252499
    4          1             0        0.651233    0.060142    2.033985
    5          8             0        0.117841   -0.184037   -1.298461
    6          1             0        0.200800   -1.171290    1.560589
 ---------------------------------------------------------------------

 Entering Gaussian System  

                          Input orientation:   
 ---------------------------------------------------------------------
 Center     Atomic     Atomic              Coordinates (Angstroms)
 Number     Number      Type              X           Y           Z 
 ---------------------------------------------------------------------
    1          6             0       -0.389386    0.272508    0.049476
    2          7             0       -0.013341   -0.058048    1.174665
    3          1             0        1.515934    0.992706   -0.284068
    4          1             0        0.877103    0.116456    1.939638
    5          8             0        0.131955   -0.147834   -1.272862
    6          1             0        0.341752   -1.203299    1.635863
 ---------------------------------------------------------------------

 Entering Gaussian System  

                          Input orientation:   
 ---------------------------------------------------------------------
 Center     Atomic     Atomic              Coordinates (Angstroms)
 Number     Number      Type              X           Y           Z 
 ---------------------------------------------------------------------
    1          6             0       -0.428548    0.216727    0.023816
    2          7             0       -0.030573   -0.052366    1.197134
    3          1             0        1.684253    0.893289   -0.331268
    4          1             0        1.062365    0.149236    1.523825
    5          8             0        0.147125   -0.106445   -1.246231
    6          1             0        0.454419   -1.208030    1.669677
 ---------------------------------------------------------------------

 Entering Gaussian System  

                          Input orientation:   
 ---------------------------------------------------------------------
 Center     Atomic     Atomic              Coordinates (Angstroms)
 Number     Number      Type              X           Y           Z 
 ---------------------------------------------------------------------
    1          6             0       -0.430751    0.213792    0.022348
    2          7             0       -0.031336   -0.052198    1.198566
    3          1             0        1.693443    0.888331   -0.334210
    4          1             0        1.071616    0.151405    1.501018
    5          8             0        0.147958   -0.104231   -1.244814
    6          1             0        0.459662   -1.207735    1.670542
 ---------------------------------------------------------------------

 Entering Gaussian System  

                          Input orientation:   
 ---------------------------------------------------------------------
 Center     Atomic     Atomic              Coordinates (Angstroms)
 Number     Number      Type              X           Y           Z 
 ---------------------------------------------------------------------
    1          6             0       -0.430751    0.213792    0.022348
    2          7             0       -0.031336   -0.052198    1.198566
    3          1             0        1.693443    0.888331   -0.334210
    4          1             0        1.071616    0.151405    1.501018
    5          8             0        0.147958   -0.104231   -1.244814
    6          1             0        0.459662   -1.207735    1.670542
 ---------------------------------------------------------------------

 Entering Gaussian System  

                          Input orientation:   
 ---------------------------------------------------------------------
 Center     Atomic     Atomic              Coordinates (Angstroms)
 Number     Number      Type              X           Y           Z 
 ---------------------------------------------------------------------
    1          6             0       -0.430751    0.213792    0.022348
    2          7             0       -0.031336   -0.052198    1.198566
    3          1             0        1.693443    0.888331   -0.334210
    4          1             0        1.071616    0.151405    1.501018
    5          8             0        0.147958   -0.104231   -1.244814
    6          1             0        0.459662   -1.207735    1.670542
 ---------------------------------------------------------------------

 Entering Gaussian System  

                          Input orientation:   
 ---------------------------------------------------------------------
 Center     Atomic     Atomic              Coordinates (Angstroms)
 Number     Number      Type              X           Y           Z 
 ---------------------------------------------------------------------
    1          6             0       -0.430751    0.213792    0.022348
    2          7             0       -0.031336   -0.052198    1.198566
    3          1             0        1.693443    0.888331   -0.334210
    4          1             0        1.071616    0.151405    1.501018
    5          8             0        0.147958   -0.104231   -1.244814
    6          1             0        0.459662   -1.207735    1.670542
 ---------------------------------------------------------------------

 Entering Gaussian System  

                          Input orientation:   
 ---------------------------------------------------------------------
 Center     Atomic     Atomic              Coordinates (Angstroms)
 Number     Number      Type              X           Y           Z 
 ---------------------------------------------------------------------
    1          6             0       -0.430751    0.213792    0.022348
    2          7             0       -0.031336   -0.052198    1.198566
    3          1             0        1.693443    0.888331   -0.334210
    4          1             0        1.071616    0.151405    1.501018
    5          8             0        0.147958   -0.104231   -1.244814
    6          1             0        0.459662   -1.207735    1.670542
 ---------------------------------------------------------------------

 Entering Gaussian System  

                          Input orientation:   
 ---------------------------------------------------------------------
 Center     Atomic     Atomic              Coordinates (Angstroms)
 Number     Number      Type              X           Y           Z 
 ---------------------------------------------------------------------
    1          6             0       -0.430751    0.213792    0.022348
    2          7             0       -0.031336   -0.052198    1.198566
    3          1             0        1.693443    0.888331   -0.334210
    4          1             0        1.071616    0.151405    1.501018
    5          8             0        0.147958   -0.104231   -1.244814
    6          1             0        0.459662   -1.207735    1.670542
 ---------------------------------------------------------------------

 Entering Gaussian System  

                          Input orientation:   
 ---------------------------------------------------------------------
 Center     Atomic     Atomic              Coordinates (Angstroms)
 Number     Number      Type              X           Y           Z 
 ---------------------------------------------------------------------
    1          6             0       -0.430751    0.213792    0.022348
    2          7             0       -0.031336   -0.052198    1.198566
    3          1             0        1.693443    0.888331   -0.334210
    4          1             0        1.071616    0.151405    1.501018
    5          8             0        0.147958   -0.104231   -1.244814
    6          1             0        0.459662   -1.207735    1.670542
 ---------------------------------------------------------------------

 Entering Gaussian System  

                          Input orientation:   
 ---------------------------------------------------------------------
 Center     Atomic     Atomic              Coordinates (Angstroms)
 Number     Number      Type              X           Y           Z 
 ---------------------------------------------------------------------
    1          6             0       -0.430751    0.213792    0.022348
    2          7             0       -0.031336   -0.052198    1.198566
    3          1             0        1.693443    0.888331   -0.334210
    4          1             0        1.071616    0.151405    1.501018
    5          8             0        0.147958   -0.104231   -1.244814
    6          1             0        0.459662   -1.207735    1.670542
 ---------------------------------------------------------------------

 Entering Gaussian System  

                          Input orientation:   
 ---------------------------------------------------------------------
 Center     Atomic     Atomic              Coordinates (Angstroms)
 Number     Number      Type              X           Y           Z 
 ---------------------------------------------------------------------
    1          6             0       -0.430751    0.213792    0.022348
    2          7             0       -0.031336   -0.052198    1.198566
    3          1             0        1.693443    0.888331   -0.334210
    4          1             0        1.071616    0.151405    1.501018
    5          8             0        0.147958   -0.104231   -1.244814
    6          1             0        0.459662   -1.207735    1.670542
 ---------------------------------------------------------------------

 Entering Gaussian System  

                          Input orientation:   
 ---------------------------------------------------------------------
 Center     Atomic     Atomic              Coordinates (Angstroms)
 Number     Number      Type              X           Y           Z 
 ---------------------------------------------------------------------
    1          6             0       -0.430751    0.213792    0.022348
    2          7             0       -0.031336   -0.052198    1.198566
    3          1             0        1.693443    0.888331   -0.334210
    4          1             0        1.071616    0.151405    1.501018
    5          8             0        0.147958   -0.104231   -1.244814
    6          1             0        0.459662   -1.207735    1.670542
 ---------------------------------------------------------------------

 Entering Gaussian System  

                          Input orientation:   
 ---------------------------------------------------------------------
 Center     Atomic     Atomic              Coordinates (Angstroms)
 Number     Number      Type              X           Y           Z 
 ---------------------------------------------------------------------
    1          6             0       -0.430751    0.213792    0.022348
    2          7             0       -0.031336   -0.052198    1.198566
    3          1             0        1.693443    0.888331   -0.334210
    4          1             0        1.071616    0.151405    1.501018
    5          8             0        0.147958   -0.104231   -1.244814
    6          1             0        0.459662   -1.207735    1.670542
 ---------------------------------------------------------------------

 Entering Gaussian System  

                          Input orientation:   
 ---------------------------------------------------------------------
 Center     Atomic     Atomic              Coordinates (Angstroms)
 Number     Number      Type              X           Y           Z 
 ---------------------------------------------------------------------
    1          6             0       -0.430751    0.213792    0.022348
    2          7             0       -0.031336   -0.052198    1.198566
    3          1             0        1.693443    0.888331   -0.334210
    4          1             0        1.071616    0.151405    1.501018
    5          8             0        0.147958   -0.104231   -1.244814
    6          1             0        0.459662   -1.207735    1.670542
 ---------------------------------------------------------------------

 Entering Gaussian System  

                          Input orientation:   
 ---------------------------------------------------------------------
 Center     Atomic     Atomic              Coordinates (Angstroms)
 Number     Number      Type              X           Y           Z 
 ---------------------------------------------------------------------
    1          6             0       -0.430751    0.213792    0.022348
    2          7             0       -0.031336   -0.052198    1.198566
    3          1             0        1.693443    0.888331   -0.334210
    4          1             0        1.071616    0.151405    1.501018
    5          8             0        0.147958   -0.104231   -1.244814
    6          1             0        0.459662   -1.207735    1.670542
 ---------------------------------------------------------------------

 Entering Gaussian System  

                          Input orientation:   
 ---------------------------------------------------------------------
 Center     Atomic     Atomic              Coordinates (Angstroms)
 Number     Number      Type              X           Y           Z 
 ---------------------------------------------------------------------
    1          6             0       -0.430751    0.213792    0.022348
    2          7             0       -0.031336   -0.052198    1.198566
    3          1             0        1.693443    0.888331   -0.334210
    4          1             0        1.071616    0.151405    1.501018
    5          8             0        0.147958   -0.104231   -1.244814
    6          1             0        0.459662   -1.207735    1.670542
 ---------------------------------------------------------------------

 Entering Gaussian System  

                          Input orientation:   
 ---------------------------------------------------------------------
 Center     Atomic     Atomic              Coordinates (Angstroms)
 Number     Number      Type              X           Y           Z 
 ---------------------------------------------------------------------
    1          6             0       -0.430751    0.213792    0.022348
    2          7             0       -0.031336   -0.052198    1.198566
    3          1             0        1.693443    0.888331   -0.334210
    4          1             0        1.071616    0.151405    1.501018
    5          8             0        0.147958   -0.104231   -1.244814
    6          1             0        0.459662   -1.207735    1.670542
 ---------------------------------------------------------------------

 Entering Gaussian System  

                          Input orientation:   
 ---------------------------------------------------------------------
 Center     Atomic     Atomic              Coordinates (Angstroms)
 Number     Number      Type              X           Y           Z 
 ---------------------------------------------------------------------
    1          6             0       -0.430751    0.213792    0.022348
    2          7             0       -0.031336   -0.052198    1.198566
    3          1             0        1.693443    0.888331   -0.334210
    4          1             0        1.071616    0.151405    1.501018
    5          8             0        0.147958   -0.104231   -1.244814
    6          1             0        0.459662   -1.207735    1.670542
 ---------------------------------------------------------------------

 Entering Gaussian System  

                          Input orientation:   
 ---------------------------------------------------------------------
 Center     Atomic     Atomic              Coordinates (Angstroms)
 Number     Number      Type              X           Y           Z 
 ---------------------------------------------------------------------
    1          6             0       -0.430751    0.213792    0.022348
    2          7             0       -0.031336   -0.052198    1.198566
    3          1             0        1.693443    0.888331   -0.334210
    4          1             0        1.071616    0.151405    1.501018
    5          8             0        0.147958   -0.104231   -1.244814
    6          1             0        0.459662   -1.207735    1.670542
 ---------------------------------------------------------------------

 Entering Gaussian System  

                          Input orientation:   
 ---------------------------------------------------------------------
 Center     Atomic     Atomic              Coordinates (Angstroms)
 Number     Number      Type              X           Y           Z 
 ---------------------------------------------------------------------
    1          6             0       -0.430751    0.213792    0.022348
    2          7             0       -0.031336   -0.052198    1.198566
    3          1             0        1.693443    0.888331   -0.334210
    4          1             0        1.071616    0.151405    1.501018
    5          8             0        0.147958   -0.104231   -1.244814
    6          1             0        0.459662   -1.207735    1.670542
 ---------------------------------------------------------------------

 Entering Gaussian System  

                          Input orientation:   
 ---------------------------------------------------------------------
 Center     Atomic     Atomic              Coordinates (Angstroms)
 Number     Number      Type              X           Y           Z 
 ---------------------------------------------------------------------
    1          6             0       -0.430751    0.213792    0.022348
    2          7             0       -0.031336   -0.052198    1.198566
    3          1             0        1.693443    0.888331   -0.334210
    4          1             0        1.071616    0.151405    1.501018
    5          8             0        0.147958   -0.104231   -1.244814
    6          1             0        0.459662   -1.207735    1.670542
 ---------------------------------------------------------------------

 Entering Gaussian System  

                          Input orientation:   
 ---------------------------------------------------------------------
 Center     Atomic     Atomic              Coordinates (Angstroms)
 Number     Number      Type              X           Y           Z 
 ---------------------------------------------------------------------
    1          6             0       -0.430751    0.213792    0.022348
    2          7             0       -0.031336   -0.052198    1.198566
    3          1             0        1.693443    0.888331   -0.334210
    4          1             0        1.071616    0.151405    1.501018
    5          8             0        0.147958   -0.104231   -1.244814
    6          1             0        0.459662   -1.207735    1.670542
 ---------------------------------------------------------------------

 Entering Gaussian System  

                          Input orientation:   
 ---------------------------------------------------------------------
 Center     Atomic     Atomic              Coordinates (Angstroms)
 Number     Number      Type              X           Y           Z 
 ---------------------------------------------------------------------
    1          6             0       -0.430751    0.213792    0.022348
    2          7             0       -0.031336   -0.052198    1.198566
    3          1             0        1.693443    0.888331   -0.334210
    4          1             0        1.071616    0.151405    1.501018
    5          8             0        0.147958   -0.104231   -1.244814
    6          1             0        0.459662   -1.207735    1.670542
 ---------------------------------------------------------------------

 Entering Gaussian System  

                          Input orientation:   
 ---------------------------------------------------------------------
 Center     Atomic     Atomic              Coordinates (Angstroms)
 Number     Number      Type              X           Y           Z 
 ---------------------------------------------------------------------
    1          6             0       -0.430751    0.213792    0.022348
    2          7             0       -0.031336   -0.052198    1.198566
    3          1             0        1.693443    0.888331   -0.334210
    4          1             0        1.071616    0.151405    1.501018
    5          8             0        0.147958   -0.104231   -1.244814
    6          1             0        0.459662   -1.207735    1.670542
 ---------------------------------------------------------------------

 Entering Gaussian System  

                          Input orientation:   
 ---------------------------------------------------------------------
 Center     Atomic     Atomic              Coordinates (Angstroms)
 Number     Number      Type              X           Y           Z 
 ---------------------------------------------------------------------
    1          6             0       -0.430751    0.213792    0.022348
    2          7             0       -0.031336   -0.052198    1.198566
    3          1             0        1.693443    0.888331   -0.334210
    4          1             0        1.071616    0.151405    1.501018
    5          8             0        0.147958   -0.104231   -1.244814
    6          1             0        0.459662   -1.207735    1.670542
 ---------------------------------------------------------------------

 Entering Gaussian System  

                          Input orientation:   
 ---------------------------------------------------------------------
 Center     Atomic     Atomic              Coordinates (Angstroms)
 Number     Number      Type              X           Y           Z 
 ---------------------------------------------------------------------
    1          6             0       -0.430751    0.213792    0.022348
    2          7             0       -0.031336   -0.052198    1.198566
    3          1             0        1.693443    0.888331   -0.334210
    4          1             0        1.071616    0.151405    1.501018
    5          8             0        0.147958   -0.104231   -1.244814
    6          1             0        0.459662   -1.207735    1.670542
 ---------------------------------------------------------------------

 Entering Gaussian System  

                          Input orientation:   
 ---------------------------------------------------------------------
 Center     Atomic     Atomic              Coordinates (Angstroms)
 Number     Number      Type              X           Y           Z 
 ---------------------------------------------------------------------
    1          6             0       -0.430751    0.213792    0.022348
    2          7             0       -0.031336   -0.052198    1.198566
    3          1             0        1.693443    0.888331   -0.334210
    4          1             0        1.071616    0.151405    1.501018
    5          8             0        0.147958   -0.104231   -1.244814
    6          1             0        0.459662   -1.207735    1.670542
 ---------------------------------------------------------------------

 Entering Gaussian System  

                          Input orientation:   
 ---------------------------------------------------------------------
 Center     Atomic     Atomic              Coordinates (Angstroms)
 Number     Number      Type              X           Y           Z 
 ---------------------------------------------------------------------
    1          6             0       -0.430751    0.213792    0.022348
    2          7             0       -0.031336   -0.052198    1.198566
    3          1             0        1.693443    0.888331   -0.334210
    4          1             0        1.071616    0.151405    1.501018
    5          8             0        0.147958   -0.104231   -1.244814
    6          1             0        0.459662   -1.207735    1.670542
 ---------------------------------------------------------------------

 Entering Gaussian System  

                          Input orientation:   
 ---------------------------------------------------------------------
 Center     Atomic     Atomic              Coordinates (Angstroms)
 Number     Number      Type              X           Y           Z 
 ---------------------------------------------------------------------
    1          6             0       -0.430751    0.213792    0.022348
    2          7             0       -0.031336   -0.052198    1.198566
    3          1             0        1.693443    0.888331   -0.334210
    4          1             0        1.071616    0.151405    1.501018
    5          8             0        0.147958   -0.104231   -1.244814
    6          1             0        0.459662   -1.207735    1.670542
 ---------------------------------------------------------------------

 Entering Gaussian System  

                          Input orientation:   
 ---------------------------------------------------------------------
 Center     Atomic     Atomic              Coordinates (Angstroms)
 Number     Number      Type              X           Y           Z 
 ---------------------------------------------------------------------
    1          6             0       -0.430751    0.213792    0.022348
    2          7             0       -0.031336   -0.052198    1.198566
    3          1             0        1.693443    0.888331   -0.334210
    4          1             0        1.071616    0.151405    1.501018
    5          8             0        0.147958   -0.104231   -1.244814
    6          1             0        0.459662   -1.207735    1.670542
 ---------------------------------------------------------------------

 Entering Gaussian System  

                          Input orientation:   
 ---------------------------------------------------------------------
 Center     Atomic     Atomic              Coordinates (Angstroms)
 Number     Number      Type              X           Y           Z 
 ---------------------------------------------------------------------
    1          6             0       -0.430751    0.213792    0.022348
    2          7             0       -0.031336   -0.052198    1.198566
    3          1             0        1.693443    0.888331   -0.334210
    4          1             0        1.071616    0.151405    1.501018
    5          8             0        0.147958   -0.104231   -1.244814
    6          1             0        0.459662   -1.207735    1.670542
 ---------------------------------------------------------------------

 Entering Gaussian System  

                          Input orientation:   
 ---------------------------------------------------------------------
 Center     Atomic     Atomic              Coordinates (Angstroms)
 Number     Number      Type              X           Y           Z 
 ---------------------------------------------------------------------
    1          6             0       -0.430751    0.213792    0.022348
    2          7             0       -0.031336   -0.052198    1.198566
    3          1             0        1.693443    0.888331   -0.334210
    4          1             0        1.071616    0.151405    1.501018
    5          8             0        0.147958   -0.104231   -1.244814
    6          1             0        0.459662   -1.207735    1.670542
 ---------------------------------------------------------------------

 Entering Gaussian System  

                          Input orientation:   
 ---------------------------------------------------------------------
 Center     Atomic     Atomic              Coordinates (Angstroms)
 Number     Number      Type              X           Y           Z 
 ---------------------------------------------------------------------
    1          6             0       -0.430751    0.213792    0.022348
    2          7             0       -0.031336   -0.052198    1.198566
    3          1             0        1.693443    0.888331   -0.334210
    4          1             0        1.071616    0.151405    1.501018
    5          8             0        0.147958   -0.104231   -1.244814
    6          1             0        0.459662   -1.207735    1.670542
 ---------------------------------------------------------------------

 Entering Gaussian System  

                          Input orientation:   
 ---------------------------------------------------------------------
 Center     Atomic     Atomic              Coordinates (Angstroms)
 Number     Number      Type              X           Y           Z 
 ---------------------------------------------------------------------
    1          6             0       -0.430751    0.213792    0.022348
    2          7             0       -0.031336   -0.052198    1.198566
    3          1             0        1.693443    0.888331   -0.334210
    4          1             0        1.071616    0.151405    1.501018
    5          8             0        0.147958   -0.104231   -1.244814
    6          1             0        0.459662   -1.207735    1.670542
 ---------------------------------------------------------------------

 Entering Gaussian System  

                          Input orientation:   
 ---------------------------------------------------------------------
 Center     Atomic     Atomic              Coordinates (Angstroms)
 Number     Number      Type              X           Y           Z 
 ---------------------------------------------------------------------
    1          6             0       -0.430751    0.213792    0.022348
    2          7             0       -0.031336   -0.052198    1.198566
    3          1             0        1.693443    0.888331   -0.334210
    4          1             0        1.071616    0.151405    1.501018
    5          8             0        0.147958   -0.104231   -1.244814
    6          1             0        0.459662   -1.207735    1.670542
 ---------------------------------------------------------------------

 Entering Gaussian System  

                          Input orientation:   
 ---------------------------------------------------------------------
 Center     Atomic     Atomic              Coordinates (Angstroms)
 Number     Number      Type              X           Y           Z 
 ---------------------------------------------------------------------
    1          6             0       -0.430751    0.213792    0.022348
    2          7             0       -0.031336   -0.052198    1.198566
    3          1             0        1.693443    0.888331   -0.334210
    4          1             0        1.071616    0.151405    1.501018
    5          8             0        0.147958   -0.104231   -1.244814
    6          1             0        0.459662   -1.207735    1.670542
 ---------------------------------------------------------------------

 Entering Gaussian System  

                          Input orientation:   
 ---------------------------------------------------------------------
 Center     Atomic     Atomic              Coordinates (Angstroms)
 Number     Number      Type              X           Y           Z 
 ---------------------------------------------------------------------
    1          6             0       -0.430751    0.213792    0.022348
    2          7             0       -0.031336   -0.052198    1.198566
    3          1             0        1.693443    0.888331   -0.334210
    4          1             0        1.071616    0.151405    1.501018
    5          8             0        0.147958   -0.104231   -1.244814
    6          1             0        0.459662   -1.207735    1.670542
 ---------------------------------------------------------------------

 Entering Gaussian System  

                          Input orientation:   
 ---------------------------------------------------------------------
 Center     Atomic     Atomic              Coordinates (Angstroms)
 Number     Number      Type              X           Y           Z 
 ---------------------------------------------------------------------
    1          6             0       -0.430751    0.213792    0.022348
    2          7             0       -0.031336   -0.052198    1.198566
    3          1             0        1.693443    0.888331   -0.334210
    4          1             0        1.071616    0.151405    1.501018
    5          8             0        0.147958   -0.104231   -1.244814
    6          1             0        0.459662   -1.207735    1.670542
 ---------------------------------------------------------------------

 Entering Gaussian System  

                          Input orientation:   
 ---------------------------------------------------------------------
 Center     Atomic     Atomic              Coordinates (Angstroms)
 Number     Number      Type              X           Y           Z 
 ---------------------------------------------------------------------
    1          6             0       -0.430751    0.213792    0.022348
    2          7             0       -0.031336   -0.052198    1.198566
    3          1             0        1.693443    0.888331   -0.334210
    4          1             0        1.071616    0.151405    1.501018
    5          8             0        0.147958   -0.104231   -1.244814
    6          1             0        0.459662   -1.207735    1.670542
 ---------------------------------------------------------------------

 Entering Gaussian System  

                          Input orientation:   
 ---------------------------------------------------------------------
 Center     Atomic     Atomic              Coordinates (Angstroms)
 Number     Number      Type              X           Y           Z 
 ---------------------------------------------------------------------
    1          6             0       -0.430751    0.213792    0.022348
    2          7             0       -0.031336   -0.052198    1.198566
    3          1             0        1.693443    0.888331   -0.334210
    4          1             0        1.071616    0.151405    1.501018
    5          8             0        0.147958   -0.104231   -1.244814
    6          1             0        0.459662   -1.207735    1.670542
 ---------------------------------------------------------------------

 Entering Gaussian System  

                          Input orientation:   
 ---------------------------------------------------------------------
 Center     Atomic     Atomic              Coordinates (Angstroms)
 Number     Number      Type              X           Y           Z 
 ---------------------------------------------------------------------
    1          6             0       -0.430751    0.213792    0.022348
    2          7             0       -0.031336   -0.052198    1.198566
    3          1             0        1.693443    0.888331   -0.334210
    4          1             0        1.071616    0.151405    1.501018
    5          8             0        0.147958   -0.104231   -1.244814
    6          1             0        0.459662   -1.207735    1.670542
 ---------------------------------------------------------------------

 Entering Gaussian System  

                          Input orientation:   
 ---------------------------------------------------------------------
 Center     Atomic     Atomic              Coordinates (Angstroms)
 Number     Number      Type              X           Y           Z 
 ---------------------------------------------------------------------
    1          6             0       -0.430751    0.213792    0.022348
    2          7             0       -0.031336   -0.052198    1.198566
    3          1             0        1.693443    0.888331   -0.334210
    4          1             0        1.071616    0.151405    1.501018
    5          8             0        0.147958   -0.104231   -1.244814
    6          1             0        0.459662   -1.207735    1.670542
 ---------------------------------------------------------------------

 Entering Gaussian System  

                          Input orientation:   
 ---------------------------------------------------------------------
 Center     Atomic     Atomic              Coordinates (Angstroms)
 Number     Number      Type              X           Y           Z 
 ---------------------------------------------------------------------
    1          6             0       -0.430751    0.213792    0.022348
    2          7             0       -0.031336   -0.052198    1.198566
    3          1             0        1.693443    0.888331   -0.334210
    4          1             0        1.071616    0.151405    1.501018
    5          8             0        0.147958   -0.104231   -1.244814
    6          1             0        0.459662   -1.207735    1.670542
 ---------------------------------------------------------------------

 Entering Gaussian System  

                          Input orientation:   
 ---------------------------------------------------------------------
 Center     Atomic     Atomic              Coordinates (Angstroms)
 Number     Number      Type              X           Y           Z 
 ---------------------------------------------------------------------
    1          6             0       -0.430751    0.213792    0.022348
    2          7             0       -0.031336   -0.052198    1.198566
    3          1             0        1.693443    0.888331   -0.334210
    4          1             0        1.071616    0.151405    1.501018
    5          8             0        0.147958   -0.104231   -1.244814
    6          1             0        0.459662   -1.207735    1.670542
 ---------------------------------------------------------------------

 Entering Gaussian System  

                          Input orientation:   
 ---------------------------------------------------------------------
 Center     Atomic     Atomic              Coordinates (Angstroms)
 Number     Number      Type              X           Y           Z 
 ---------------------------------------------------------------------
    1          6             0       -0.430751    0.213792    0.022348
    2          7             0       -0.031336   -0.052198    1.198566
    3          1             0        1.693443    0.888331   -0.334210
    4          1             0        1.071616    0.151405    1.501018
    5          8             0        0.147958   -0.104231   -1.244814
    6          1             0        0.459662   -1.207735    1.670542
 ---------------------------------------------------------------------

 Entering Gaussian System  

                          Input orientation:   
 ---------------------------------------------------------------------
 Center     Atomic     Atomic              Coordinates (Angstroms)
 Number     Number      Type              X           Y           Z 
 ---------------------------------------------------------------------
    1          6             0       -0.430751    0.213792    0.022348
    2          7             0       -0.031336   -0.052198    1.198566
    3          1             0        1.693443    0.888331   -0.334210
    4          1             0        1.071616    0.151405    1.501018
    5          8             0        0.147958   -0.104231   -1.244814
    6          1             0        0.459662   -1.207735    1.670542
 ---------------------------------------------------------------------

 Entering Gaussian System  

                          Input orientation:   
 ---------------------------------------------------------------------
 Center     Atomic     Atomic              Coordinates (Angstroms)
 Number     Number      Type              X           Y           Z 
 ---------------------------------------------------------------------
    1          6             0       -0.430751    0.213792    0.022348
    2          7             0       -0.031336   -0.052198    1.198566
    3          1             0        1.693443    0.888331   -0.334210
    4          1             0        1.071616    0.151405    1.501018
    5          8             0        0.147958   -0.104231   -1.244814
    6          1             0        0.459662   -1.207735    1.670542
 ---------------------------------------------------------------------

 Entering Gaussian System  

                          Input orientation:   
 ---------------------------------------------------------------------
 Center     Atomic     Atomic              Coordinates (Angstroms)
 Number     Number      Type              X           Y           Z 
 ---------------------------------------------------------------------
    1          6             0       -0.430751    0.213792    0.022348
    2          7             0       -0.031336   -0.052198    1.198566
    3          1             0        1.693443    0.888331   -0.334210
    4          1             0        1.071616    0.151405    1.501018
    5          8             0        0.147958   -0.104231   -1.244814
    6          1             0        0.459662   -1.207735    1.670542
 ---------------------------------------------------------------------

 Entering Gaussian System  

                          Input orientation:   
 ---------------------------------------------------------------------
 Center     Atomic     Atomic              Coordinates (Angstroms)
 Number     Number      Type              X           Y           Z 
 ---------------------------------------------------------------------
    1          6             0       -0.430751    0.213792    0.022348
    2          7             0       -0.031336   -0.052198    1.198566
    3          1             0        1.693443    0.888331   -0.334210
    4          1             0        1.071616    0.151405    1.501018
    5          8             0        0.147958   -0.104231   -1.244814
    6          1             0        0.459662   -1.207735    1.670542
 ---------------------------------------------------------------------

 Entering Gaussian System  

                          Input orientation:   
 ---------------------------------------------------------------------
 Center     Atomic     Atomic              Coordinates (Angstroms)
 Number     Number      Type              X           Y           Z 
 ---------------------------------------------------------------------
    1          6             0       -0.430751    0.213792    0.022348
    2          7             0       -0.031336   -0.052198    1.198566
    3          1             0        1.693443    0.888331   -0.334210
    4          1             0        1.071616    0.151405    1.501018
    5          8             0        0.147958   -0.104231   -1.244814
    6          1             0        0.459662   -1.207735    1.670542
 ---------------------------------------------------------------------

 Entering Gaussian System  

                          Input orientation:   
 ---------------------------------------------------------------------
 Center     Atomic     Atomic              Coordinates (Angstroms)
 Number     Number      Type              X           Y           Z 
 ---------------------------------------------------------------------
    1          6             0       -0.430751    0.213792    0.022348
    2          7             0       -0.031336   -0.052198    1.198566
    3          1             0        1.693443    0.888331   -0.334210
    4          1             0        1.071616    0.151405    1.501018
    5          8             0        0.147958   -0.104231   -1.244814
    6          1             0        0.459662   -1.207735    1.670542
 ---------------------------------------------------------------------

 Entering Gaussian System  

                          Input orientation:   
 ---------------------------------------------------------------------
 Center     Atomic     Atomic              Coordinates (Angstroms)
 Number     Number      Type              X           Y           Z 
 ---------------------------------------------------------------------
    1          6             0       -0.430751    0.213792    0.022348
    2          7             0       -0.031336   -0.052198    1.198566
    3          1             0        1.693443    0.888331   -0.334210
    4          1             0        1.071616    0.151405    1.501018
    5          8             0        0.147958   -0.104231   -1.244814
    6          1             0        0.459662   -1.207735    1.670542
 ---------------------------------------------------------------------

 Entering Gaussian System  

                          Input orientation:   
 ---------------------------------------------------------------------
 Center     Atomic     Atomic              Coordinates (Angstroms)
 Number     Number      Type              X           Y           Z 
 ---------------------------------------------------------------------
    1          6             0       -0.430751    0.213792    0.022348
    2          7             0       -0.031336   -0.052198    1.198566
    3          1             0        1.693443    0.888331   -0.334210
    4          1             0        1.071616    0.151405    1.501018
    5          8             0        0.147958   -0.104231   -1.244814
    6          1             0        0.459662   -1.207735    1.670542
 ---------------------------------------------------------------------

 Entering Gaussian System  

                          Input orientation:   
 ---------------------------------------------------------------------
 Center     Atomic     Atomic              Coordinates (Angstroms)
 Number     Number      Type              X           Y           Z 
 ---------------------------------------------------------------------
    1          6             0       -0.430751    0.213792    0.022348
    2          7             0       -0.031336   -0.052198    1.198566
    3          1             0        1.693443    0.888331   -0.334210
    4          1             0        1.071616    0.151405    1.501018
    5          8             0        0.147958   -0.104231   -1.244814
    6          1             0        0.459662   -1.207735    1.670542
 ---------------------------------------------------------------------

 Entering Gaussian System  

                          Input orientation:   
 ---------------------------------------------------------------------
 Center     Atomic     Atomic              Coordinates (Angstroms)
 Number     Number      Type              X           Y           Z 
 ---------------------------------------------------------------------
    1          6             0       -0.430751    0.213792    0.022348
    2          7             0       -0.031336   -0.052198    1.198566
    3          1             0        1.693443    0.888331   -0.334210
    4          1             0        1.071616    0.151405    1.501018
    5          8             0        0.147958   -0.104231   -1.244814
    6          1             0        0.459662   -1.207735    1.670542
 ---------------------------------------------------------------------

 Entering Gaussian System  

                          Input orientation:   
 ---------------------------------------------------------------------
 Center     Atomic     Atomic              Coordinates (Angstroms)
 Number     Number      Type              X           Y           Z 
 ---------------------------------------------------------------------
    1          6             0       -0.430751    0.213792    0.022348
    2          7             0       -0.031336   -0.052198    1.198566
    3          1             0        1.693443    0.888331   -0.334210
    4          1             0        1.071616    0.151405    1.501018
    5          8             0        0.147958   -0.104231   -1.244814
    6          1             0        0.459662   -1.207735    1.670542
 ---------------------------------------------------------------------

 Entering Gaussian System  

                          Input orientation:   
 ---------------------------------------------------------------------
 Center     Atomic     Atomic              Coordinates (Angstroms)
 Number     Number      Type              X           Y           Z 
 ---------------------------------------------------------------------
    1          6             0       -0.430751    0.213792    0.022348
    2          7             0       -0.031336   -0.052198    1.198566
    3          1             0        1.693443    0.888331   -0.334210
    4          1             0        1.071616    0.151405    1.501018
    5          8             0        0.147958   -0.104231   -1.244814
    6          1             0        0.459662   -1.207735    1.670542
 ---------------------------------------------------------------------

 Entering Gaussian System  

                          Input orientation:   
 ---------------------------------------------------------------------
 Center     Atomic     Atomic              Coordinates (Angstroms)
 Number     Number      Type              X           Y           Z 
 ---------------------------------------------------------------------
    1          6             0       -0.430751    0.213792    0.022348
    2          7             0       -0.031336   -0.052198    1.198566
    3          1             0        1.693443    0.888331   -0.334210
    4          1             0        1.071616    0.151405    1.501018
    5          8             0        0.147958   -0.104231   -1.244814
    6          1             0        0.459662   -1.207735    1.670542
 ---------------------------------------------------------------------

 Entering Gaussian System  

                          Input orientation:   
 ---------------------------------------------------------------------
 Center     Atomic     Atomic              Coordinates (Angstroms)
 Number     Number      Type              X           Y           Z 
 ---------------------------------------------------------------------
    1          6             0       -0.430751    0.213792    0.022348
    2          7             0       -0.031336   -0.052198    1.198566
    3          1             0        1.693443    0.888331   -0.334210
    4          1             0        1.071616    0.151405    1.501018
    5          8             0        0.147958   -0.104231   -1.244814
    6          1             0        0.459662   -1.207735    1.670542
 ---------------------------------------------------------------------

 Entering Gaussian System  

                          Input orientation:   
 ---------------------------------------------------------------------
 Center     Atomic     Atomic              Coordinates (Angstroms)
 Number     Number      Type              X           Y           Z 
 ---------------------------------------------------------------------
    1          6             0       -0.430751    0.213792    0.022348
    2          7             0       -0.031336   -0.052198    1.198566
    3          1             0        1.693443    0.888331   -0.334210
    4          1             0        1.071616    0.151405    1.501018
    5          8             0        0.147958   -0.104231   -1.244814
    6          1             0        0.459662   -1.207735    1.670542
 ---------------------------------------------------------------------

 Entering Gaussian System  

                          Input orientation:   
 ---------------------------------------------------------------------
 Center     Atomic     Atomic              Coordinates (Angstroms)
 Number     Number      Type              X           Y           Z 
 ---------------------------------------------------------------------
    1          6             0       -0.430751    0.213792    0.022348
    2          7             0       -0.031336   -0.052198    1.198566
    3          1             0        1.693443    0.888331   -0.334210
    4          1             0        1.071616    0.151405    1.501018
    5          8             0        0.147958   -0.104231   -1.244814
    6          1             0        0.459662   -1.207735    1.670542
 ---------------------------------------------------------------------

 Entering Gaussian System  

                          Input orientation:   
 ---------------------------------------------------------------------
 Center     Atomic     Atomic              Coordinates (Angstroms)
 Number     Number      Type              X           Y           Z 
 ---------------------------------------------------------------------
    1          6             0       -0.430751    0.213792    0.022348
    2          7             0       -0.031336   -0.052198    1.198566
    3          1             0        1.693443    0.888331   -0.334210
    4          1             0        1.071616    0.151405    1.501018
    5          8             0        0.147958   -0.104231   -1.244814
    6          1             0        0.459662   -1.207735    1.670542
 ---------------------------------------------------------------------

 Entering Gaussian System  

                          Input orientation:   
 ---------------------------------------------------------------------
 Center     Atomic     Atomic              Coordinates (Angstroms)
 Number     Number      Type              X           Y           Z 
 ---------------------------------------------------------------------
    1          6             0       -0.430751    0.213792    0.022348
    2          7             0       -0.031336   -0.052198    1.198566
    3          1             0        1.693443    0.888331   -0.334210
    4          1             0        1.071616    0.151405    1.501018
    5          8             0        0.147958   -0.104231   -1.244814
    6          1             0        0.459662   -1.207735    1.670542
 ---------------------------------------------------------------------

 Entering Gaussian System  

                          Input orientation:   
 ---------------------------------------------------------------------
 Center     Atomic     Atomic              Coordinates (Angstroms)
 Number     Number      Type              X           Y           Z 
 ---------------------------------------------------------------------
    1          6             0       -0.430751    0.213792    0.022348
    2          7             0       -0.031336   -0.052198    1.198566
    3          1             0        1.693443    0.888331   -0.334210
    4          1             0        1.071616    0.151405    1.501018
    5          8             0        0.147958   -0.104231   -1.244814
    6          1             0        0.459662   -1.207735    1.670542
 ---------------------------------------------------------------------

 Entering Gaussian System  

                          Input orientation:   
 ---------------------------------------------------------------------
 Center     Atomic     Atomic              Coordinates (Angstroms)
 Number     Number      Type              X           Y           Z 
 ---------------------------------------------------------------------
    1          6             0       -0.430751    0.213792    0.022348
    2          7             0       -0.031336   -0.052198    1.198566
    3          1             0        1.693443    0.888331   -0.334210
    4          1             0        1.071616    0.151405    1.501018
    5          8             0        0.147958   -0.104231   -1.244814
    6          1             0        0.459662   -1.207735    1.670542
 ---------------------------------------------------------------------
