
 Entering Gaussian System  

                          Input orientation:   
 ---------------------------------------------------------------------
 Center     Atomic     Atomic              Coordinates (Angstroms)
 Number     Number      Type              X           Y           Z 
 ---------------------------------------------------------------------
    1          6             0        0.000000    0.401721   -0.096031
    2          7             0        0.000000   -0.162504    1.145371
    3          1             0        0.000000    1.541283   -0.009698
    4          1             0        0.000000    0.374796    1.979555
    5          8             0        0.000000   -0.207339   -1.131411
    6          1             0        0.000000   -1.153754    1.217289
 ---------------------------------------------------------------------

 Entering Gaussian System  

                          Input orientation:   
 ---------------------------------------------------------------------
 Center     Atomic     Atomic              Coordinates (Angstroms)
 Number     Number      Type              X           Y           Z 
 ---------------------------------------------------------------------
    1          6             0        0.000925    0.420534   -0.094402
    2          7             0        0.004926   -0.167953    1.138691
    3          1             0       -0.020413    1.546287   -0.015085
    4          1             0       -0.017654    0.362183    1.975117
    5          8             0       -0.000212   -0.215753   -1.125281
    6          1             0       -0.038178   -1.161048    1.203226
 ---------------------------------------------------------------------

 Entering Gaussian System  

                          Input orientation:   
 ---------------------------------------------------------------------
 Center     Atomic     Atomic              Coordinates (Angstroms)
 Number     Number      Type              X           Y           Z 
 ---------------------------------------------------------------------
    1          6             0        0.014214    0.425957   -0.083592
    2          7             0        0.008481   -0.168968    1.139682
    3          1             0       -0.062697    1.548990   -0.023506
    4          1             0       -0.081583    0.368615    1.973324
    5          8             0       -0.005807   -0.219305   -1.134494
    6          1             0       -0.051174   -1.164309    1.217106
 ---------------------------------------------------------------------

 Entering Gaussian System  

                          Input orientation:   
 ---------------------------------------------------------------------
 Center     Atomic     Atomic              Coordinates (Angstroms)
 Number     Number      Type              X           Y           Z 
 ---------------------------------------------------------------------
    1          6             0        0.025119    0.439323   -0.067060
    2          7             0        0.011330   -0.172573    1.141509
    3          1             0       -0.104501    1.548386   -0.039321
    4          1             0       -0.125012    0.372706    1.969839
    5          8             0       -0.009978   -0.226848   -1.148083
    6          1             0       -0.069479   -1.157240    1.229713
 ---------------------------------------------------------------------

 Entering Gaussian System  

                          Input orientation:   
 ---------------------------------------------------------------------
 Center     Atomic     Atomic              Coordinates (Angstroms)
 Number     Number      Type              X           Y           Z 
 ---------------------------------------------------------------------
    1          6             0        0.032909    0.458473   -0.046953
    2          7             0        0.018465   -0.177183    1.143990
    3          1             0       -0.135788    1.542627   -0.056930
    4          1             0       -0.191591    0.375667    1.967012
    5          8             0       -0.013777   -0.237241   -1.164952
    6          1             0       -0.103612   -1.153611    1.243816
 ---------------------------------------------------------------------

 Entering Gaussian System  

                          Input orientation:   
 ---------------------------------------------------------------------
 Center     Atomic     Atomic              Coordinates (Angstroms)
 Number     Number      Type              X           Y           Z 
 ---------------------------------------------------------------------
    1          6             0        0.040740    0.481251   -0.027115
    2          7             0        0.020880   -0.183334    1.148019
    3          1             0       -0.169613    1.539526   -0.082022
    4          1             0       -0.220907    0.371244    1.953648
    5          8             0       -0.016619   -0.249006   -1.181354
    6          1             0       -0.122389   -1.145277    1.250248
 ---------------------------------------------------------------------

 Entering Gaussian System  

                          Input orientation:   
 ---------------------------------------------------------------------
 Center     Atomic     Atomic              Coordinates (Angstroms)
 Number     Number      Type              X           Y           Z 
 ---------------------------------------------------------------------
    1          6             0        0.049536    0.504707   -0.009741
    2          7             0        0.021105   -0.190172    1.153475
    3          1             0       -0.208349    1.545444   -0.109095
    4          1             0       -0.234765    0.362708    1.936775
    5          8             0       -0.019328   -0.260960   -1.196452
    6          1             0       -0.134805   -1.137405    1.250977
 ---------------------------------------------------------------------

 Entering Gaussian System  

                          Input orientation:   
 ---------------------------------------------------------------------
 Center     Atomic     Atomic              Coordinates (Angstroms)
 Number     Number      Type              X           Y           Z 
 ---------------------------------------------------------------------
    1          6             0        0.058584    0.528275    0.005153
    2          7             0        0.021542   -0.196377    1.160251
    3          1             0       -0.250262    1.552835   -0.130964
    4          1             0       -0.248042    0.353021    1.927262
    5          8             0       -0.022031   -0.273084   -1.211295
    6          1             0       -0.150665   -1.137272    1.246322
 ---------------------------------------------------------------------

 Entering Gaussian System  

                          Input orientation:   
 ---------------------------------------------------------------------
 Center     Atomic     Atomic              Coordinates (Angstroms)
 Number     Number      Type              X           Y           Z 
 ---------------------------------------------------------------------
    1          6             0        0.067942    0.551330    0.018798
    2          7             0        0.021334   -0.200752    1.167351
    3          1             0       -0.292770    1.558457   -0.142846
    4          1             0       -0.257962    0.344964    1.933305
    5          8             0       -0.024760   -0.285547   -1.226788
    6          1             0       -0.163607   -1.150915    1.236818
 ---------------------------------------------------------------------

 Entering Gaussian System  

                          Input orientation:   
 ---------------------------------------------------------------------
 Center     Atomic     Atomic              Coordinates (Angstroms)
 Number     Number      Type              X           Y           Z 
 ---------------------------------------------------------------------
    1          6             0        0.077443    0.573051    0.031151
    2          7             0        0.020770   -0.203362    1.174584
    3          1             0       -0.336529    1.562962   -0.144381
    4          1             0       -0.264728    0.338297    1.954489
    5          8             0       -0.027432   -0.298042   -1.242694
    6          1             0       -0.176074   -1.172971    1.221922
 ---------------------------------------------------------------------

 Entering Gaussian System  

                          Input orientation:   
 ---------------------------------------------------------------------
 Center     Atomic     Atomic              Coordinates (Angstroms)
 Number     Number      Type              X           Y           Z 
 ---------------------------------------------------------------------
    1          6             0        0.088023    0.592649    0.041347
    2          7             0        0.019726   -0.204916    1.182223
    3          1             0       -0.386169    1.569781   -0.139711
    4          1             0       -0.268141    0.329522    1.985595
    5          8             0       -0.030283   -0.309991   -1.257941
    6          1             0       -0.189378   -1.193281    1.200541
 ---------------------------------------------------------------------

 Entering Gaussian System  

                          Input orientation:   
 ---------------------------------------------------------------------
 Center     Atomic     Atomic              Coordinates (Angstroms)
 Number     Number      Type              X           Y           Z 
 ---------------------------------------------------------------------
    1          6             0        0.100274    0.609481    0.048866
    2          7             0        0.018007   -0.206112    1.190775
    3          1             0       -0.443552    1.581027   -0.132675
    4          1             0       -0.268464    0.315061    2.017939
    5          8             0       -0.033498   -0.320813   -1.271864
    6          1             0       -0.202728   -1.202218    1.173706
 ---------------------------------------------------------------------

 Entering Gaussian System  

                          Input orientation:   
 ---------------------------------------------------------------------
 Center     Atomic     Atomic              Coordinates (Angstroms)
 Number     Number      Type              X           Y           Z 
 ---------------------------------------------------------------------
    1          6             0        0.113729    0.623144    0.053461
    2          7             0        0.015348   -0.207697    1.200677
    3          1             0       -0.506101    1.593583   -0.128032
    4          1             0       -0.263771    0.294313    2.041934
    5          8             0       -0.036921   -0.329743   -1.283933
    6          1             0       -0.213921   -1.193069    1.144291
 ---------------------------------------------------------------------

 Entering Gaussian System  

                          Input orientation:   
 ---------------------------------------------------------------------
 Center     Atomic     Atomic              Coordinates (Angstroms)
 Number     Number      Type              X           Y           Z 
 ---------------------------------------------------------------------
    1          6             0        0.128447    0.633805    0.055009
    2          7             0        0.011958   -0.209908    1.211924
    3          1             0       -0.574409    1.599878   -0.128793
    4          1             0       -0.255248    0.268569    2.053487
    5          8             0       -0.040587   -0.336270   -1.293775
    6          1             0       -0.224194   -1.166316    1.114984
 ---------------------------------------------------------------------

 Entering Gaussian System  

                          Input orientation:   
 ---------------------------------------------------------------------
 Center     Atomic     Atomic              Coordinates (Angstroms)
 Number     Number      Type              X           Y           Z 
 ---------------------------------------------------------------------
    1          6             0        0.144707    0.641875    0.053602
    2          7             0        0.007935   -0.212152    1.224006
    3          1             0       -0.650193    1.590499   -0.133804
    4          1             0       -0.243419    0.240746    2.055215
    5          8             0       -0.044569   -0.340257   -1.301404
    6          1             0       -0.234847   -1.130791    1.088222
 ---------------------------------------------------------------------

 Entering Gaussian System  

                          Input orientation:   
 ---------------------------------------------------------------------
 Center     Atomic     Atomic              Coordinates (Angstroms)
 Number     Number      Type              X           Y           Z 
 ---------------------------------------------------------------------
    1          6             0        0.162159    0.647595    0.050275
    2          7             0        0.003363   -0.213605    1.235734
    3          1             0       -0.732194    1.559288   -0.140435
    4          1             0       -0.228081    0.216830    2.054584
    5          8             0       -0.048760   -0.341833   -1.307412
    6          1             0       -0.246041   -1.098609    1.067528
 ---------------------------------------------------------------------

 Entering Gaussian System  

                          Input orientation:   
 ---------------------------------------------------------------------
 Center     Atomic     Atomic              Coordinates (Angstroms)
 Number     Number      Type              X           Y           Z 
 ---------------------------------------------------------------------
    1          6             0        0.178501    0.652291    0.045493
    2          7             0       -0.001849   -0.214383    1.245730
    3          1             0       -0.805454    1.509790   -0.145911
    4          1             0       -0.211142    0.202784    2.056034
    5          8             0       -0.052722   -0.341601   -1.311929
    6          1             0       -0.249051   -1.083896    1.061332
 ---------------------------------------------------------------------

 Entering Gaussian System  

                          Input orientation:   
 ---------------------------------------------------------------------
 Center     Atomic     Atomic              Coordinates (Angstroms)
 Number     Number      Type              X           Y           Z 
 ---------------------------------------------------------------------
    1          6             0        0.190248    0.655857    0.041158
    2          7             0       -0.006835   -0.213882    1.251241
    3          1             0       -0.854129    1.447913   -0.137760
    4          1             0       -0.194696    0.203182    2.078354
    5          8             0       -0.055580   -0.340822   -1.315975
    6          1             0       -0.242056   -1.084233    1.070160
 ---------------------------------------------------------------------

 Entering Gaussian System  

                          Input orientation:   
 ---------------------------------------------------------------------
 Center     Atomic     Atomic              Coordinates (Angstroms)
 Number     Number      Type              X           Y           Z 
 ---------------------------------------------------------------------
    1          6             0        0.194743    0.657961    0.038804
    2          7             0       -0.010800   -0.211001    1.251279
    3          1             0       -0.872547    1.385722   -0.104683
    4          1             0       -0.173625    0.215145    2.131928
    5          8             0       -0.056322   -0.340923   -1.320937
    6          1             0       -0.231293   -1.097511    1.089807
 ---------------------------------------------------------------------

 Entering Gaussian System  

                          Input orientation:   
 ---------------------------------------------------------------------
 Center     Atomic     Atomic              Coordinates (Angstroms)
 Number     Number      Type              X           Y           Z 
 ---------------------------------------------------------------------
    1          6             0        0.189998    0.658509    0.040291
    2          7             0       -0.012836   -0.205633    1.247030
    3          1             0       -0.853009    1.339712   -0.046271
    4          1             0       -0.150531    0.233305    2.200784
    5          8             0       -0.054444   -0.342651   -1.328322
    6          1             0       -0.218794   -1.123354    1.121101
 ---------------------------------------------------------------------

 Entering Gaussian System  

                          Input orientation:   
 ---------------------------------------------------------------------
 Center     Atomic     Atomic              Coordinates (Angstroms)
 Number     Number      Type              X           Y           Z 
 ---------------------------------------------------------------------
    1          6             0        0.173630    0.656604    0.050071
    2          7             0       -0.011603   -0.197724    1.240582
    3          1             0       -0.781809    1.321364    0.029400
    4          1             0       -0.135750    0.246836    2.245495
    5          8             0       -0.049645   -0.346185   -1.340189
    6          1             0       -0.202970   -1.149660    1.162155
 ---------------------------------------------------------------------

 Entering Gaussian System  

                          Input orientation:   
 ---------------------------------------------------------------------
 Center     Atomic     Atomic              Coordinates (Angstroms)
 Number     Number      Type              X           Y           Z 
 ---------------------------------------------------------------------
    1          6             0        0.147345    0.652415    0.070389
    2          7             0       -0.005957   -0.187474    1.233408
    3          1             0       -0.666924    1.335859    0.114102
    4          1             0       -0.139451    0.243185    2.239200
    5          8             0       -0.042618   -0.351861   -1.356837
    6          1             0       -0.190949   -1.162947    1.205592
 ---------------------------------------------------------------------

 Entering Gaussian System  

                          Input orientation:   
 ---------------------------------------------------------------------
 Center     Atomic     Atomic              Coordinates (Angstroms)
 Number     Number      Type              X           Y           Z 
 ---------------------------------------------------------------------
    1          6             0        0.119389    0.645351    0.093854
    2          7             0        0.002757   -0.176450    1.227163
    3          1             0       -0.549084    1.380911    0.197488
    4          1             0       -0.157959    0.215984    2.192083
    5          8             0       -0.035372   -0.357905   -1.373663
    6          1             0       -0.193345   -1.153878    1.243587
 ---------------------------------------------------------------------

 Entering Gaussian System  

                          Input orientation:   
 ---------------------------------------------------------------------
 Center     Atomic     Atomic              Coordinates (Angstroms)
 Number     Number      Type              X           Y           Z 
 ---------------------------------------------------------------------
    1          6             0        0.096299    0.635055    0.115096
    2          7             0        0.012610   -0.165996    1.221430
    3          1             0       -0.460855    1.450646    0.260011
    4          1             0       -0.181719    0.174382    2.133056
    5          8             0       -0.029335   -0.362302   -1.386690
    6          1             0       -0.215571   -1.134806    1.273407
 ---------------------------------------------------------------------

 Entering Gaussian System  

                          Input orientation:   
 ---------------------------------------------------------------------
 Center     Atomic     Atomic              Coordinates (Angstroms)
 Number     Number      Type              X           Y           Z 
 ---------------------------------------------------------------------
    1          6             0        0.073849    0.620762    0.139146
    2          7             0        0.020941   -0.154116    1.215520
    3          1             0       -0.372548    1.561584    0.328420
    4          1             0       -0.198726    0.145910    2.070129
    5          8             0       -0.023388   -0.367230   -1.400990
    6          1             0       -0.229613   -1.133823    1.290458
 ---------------------------------------------------------------------

 Entering Gaussian System  

                          Input orientation:   
 ---------------------------------------------------------------------
 Center     Atomic     Atomic              Coordinates (Angstroms)
 Number     Number      Type              X           Y           Z 
 ---------------------------------------------------------------------
    1          6             0        0.050604    0.603965    0.164258
    2          7             0        0.028692   -0.143444    1.208452
    3          1             0       -0.272927    1.695042    0.399943
    4          1             0       -0.219769    0.143174    2.039897
    5          8             0       -0.017547   -0.372576   -1.416233
    6          1             0       -0.231711   -1.127845    1.290102
 ---------------------------------------------------------------------

 Entering Gaussian System  

                          Input orientation:   
 ---------------------------------------------------------------------
 Center     Atomic     Atomic              Coordinates (Angstroms)
 Number     Number      Type              X           Y           Z 
 ---------------------------------------------------------------------
    1          6             0        0.026260    0.588783    0.188447
    2          7             0        0.036506   -0.135462    1.200621
    3          1             0       -0.159765    1.817704    0.469877
    4          1             0       -0.250208    0.170803    2.055542
    5          8             0       -0.011885   -0.378469   -1.431745
    6          1             0       -0.222942   -1.114600    1.271303
 ---------------------------------------------------------------------

 Entering Gaussian System  

                          Input orientation:   
 ---------------------------------------------------------------------
 Center     Atomic     Atomic              Coordinates (Angstroms)
 Number     Number      Type              X           Y           Z 
 ---------------------------------------------------------------------
    1          6             0        0.002301    0.579322    0.210519
    2          7             0        0.043999   -0.130481    1.195210
    3          1             0       -0.041937    1.901682    0.528887
    4          1             0       -0.286474    0.217490    2.098166
    5          8             0       -0.006649   -0.384955   -1.447808
    6          1             0       -0.206383   -1.098765    1.236837
 ---------------------------------------------------------------------

 Entering Gaussian System  

                          Input orientation:   
 ---------------------------------------------------------------------
 Center     Atomic     Atomic              Coordinates (Angstroms)
 Number     Number      Type              X           Y           Z 
 ---------------------------------------------------------------------
    1          6             0       -0.019426    0.576382    0.228273
    2          7             0        0.050221   -0.127507    1.195789
    3          1             0        0.070607    1.940740    0.574188
    4          1             0       -0.322004    0.260940    2.130990
    5          8             0       -0.002127   -0.391449   -1.463717
    6          1             0       -0.182853   -1.084486    1.191629
 ---------------------------------------------------------------------

 Entering Gaussian System  

                          Input orientation:   
 ---------------------------------------------------------------------
 Center     Atomic     Atomic              Coordinates (Angstroms)
 Number     Number      Type              X           Y           Z 
 ---------------------------------------------------------------------
    1          6             0       -0.034165    0.579199    0.236001
    2          7             0        0.053918   -0.127693    1.200882
    3          1             0        0.145173    1.944532    0.592479
    4          1             0       -0.340144    0.286984    2.139073
    5          8             0        0.001136   -0.395629   -1.473562
    6          1             0       -0.166872   -1.078952    1.158672
 ---------------------------------------------------------------------

 Entering Gaussian System  

                          Input orientation:   
 ---------------------------------------------------------------------
 Center     Atomic     Atomic              Coordinates (Angstroms)
 Number     Number      Type              X           Y           Z 
 ---------------------------------------------------------------------
    1          6             0       -0.034165    0.579199    0.236001
    2          7             0        0.053918   -0.127693    1.200882
    3          1             0        0.145173    1.944532    0.592479
    4          1             0       -0.340144    0.286984    2.139073
    5          8             0        0.001136   -0.395629   -1.473562
    6          1             0       -0.166872   -1.078952    1.158672
 ---------------------------------------------------------------------

 Entering Gaussian System  

                          Input orientation:   
 ---------------------------------------------------------------------
 Center     Atomic     Atomic              Coordinates (Angstroms)
 Number     Number      Type              X           Y           Z 
 ---------------------------------------------------------------------
    1          6             0       -0.034165    0.579199    0.236001
    2          7             0        0.053918   -0.127693    1.200882
    3          1             0        0.145173    1.944532    0.592479
    4          1             0       -0.340144    0.286984    2.139073
    5          8             0        0.001136   -0.395629   -1.473562
    6          1             0       -0.166872   -1.078952    1.158672
 ---------------------------------------------------------------------

 Entering Gaussian System  

                          Input orientation:   
 ---------------------------------------------------------------------
 Center     Atomic     Atomic              Coordinates (Angstroms)
 Number     Number      Type              X           Y           Z 
 ---------------------------------------------------------------------
    1          6             0       -0.034165    0.579199    0.236001
    2          7             0        0.053918   -0.127693    1.200882
    3          1             0        0.145173    1.944532    0.592479
    4          1             0       -0.340144    0.286984    2.139073
    5          8             0        0.001136   -0.395629   -1.473562
    6          1             0       -0.166872   -1.078952    1.158672
 ---------------------------------------------------------------------

 Entering Gaussian System  

                          Input orientation:   
 ---------------------------------------------------------------------
 Center     Atomic     Atomic              Coordinates (Angstroms)
 Number     Number      Type              X           Y           Z 
 ---------------------------------------------------------------------
    1          6             0       -0.034165    0.579199    0.236001
    2          7             0        0.053918   -0.127693    1.200882
    3          1             0        0.145173    1.944532    0.592479
    4          1             0       -0.340144    0.286984    2.139073
    5          8             0        0.001136   -0.395629   -1.473562
    6          1             0       -0.166872   -1.078952    1.158672
 ---------------------------------------------------------------------

 Entering Gaussian System  

                          Input orientation:   
 ---------------------------------------------------------------------
 Center     Atomic     Atomic              Coordinates (Angstroms)
 Number     Number      Type              X           Y           Z 
 ---------------------------------------------------------------------
    1          6             0       -0.034165    0.579199    0.236001
    2          7             0        0.053918   -0.127693    1.200882
    3          1             0        0.145173    1.944532    0.592479
    4          1             0       -0.340144    0.286984    2.139073
    5          8             0        0.001136   -0.395629   -1.473562
    6          1             0       -0.166872   -1.078952    1.158672
 ---------------------------------------------------------------------

 Entering Gaussian System  

                          Input orientation:   
 ---------------------------------------------------------------------
 Center     Atomic     Atomic              Coordinates (Angstroms)
 Number     Number      Type              X           Y           Z 
 ---------------------------------------------------------------------
    1          6             0       -0.034165    0.579199    0.236001
    2          7             0        0.053918   -0.127693    1.200882
    3          1             0        0.145173    1.944532    0.592479
    4          1             0       -0.340144    0.286984    2.139073
    5          8             0        0.001136   -0.395629   -1.473562
    6          1             0       -0.166872   -1.078952    1.158672
 ---------------------------------------------------------------------

 Entering Gaussian System  

                          Input orientation:   
 ---------------------------------------------------------------------
 Center     Atomic     Atomic              Coordinates (Angstroms)
 Number     Number      Type              X           Y           Z 
 ---------------------------------------------------------------------
    1          6             0       -0.034165    0.579199    0.236001
    2          7             0        0.053918   -0.127693    1.200882
    3          1             0        0.145173    1.944532    0.592479
    4          1             0       -0.340144    0.286984    2.139073
    5          8             0        0.001136   -0.395629   -1.473562
    6          1             0       -0.166872   -1.078952    1.158672
 ---------------------------------------------------------------------

 Entering Gaussian System  

                          Input orientation:   
 ---------------------------------------------------------------------
 Center     Atomic     Atomic              Coordinates (Angstroms)
 Number     Number      Type              X           Y           Z 
 ---------------------------------------------------------------------
    1          6             0       -0.034165    0.579199    0.236001
    2          7             0        0.053918   -0.127693    1.200882
    3          1             0        0.145173    1.944532    0.592479
    4          1             0       -0.340144    0.286984    2.139073
    5          8             0        0.001136   -0.395629   -1.473562
    6          1             0       -0.166872   -1.078952    1.158672
 ---------------------------------------------------------------------

 Entering Gaussian System  

                          Input orientation:   
 ---------------------------------------------------------------------
 Center     Atomic     Atomic              Coordinates (Angstroms)
 Number     Number      Type              X           Y           Z 
 ---------------------------------------------------------------------
    1          6             0       -0.034165    0.579199    0.236001
    2          7             0        0.053918   -0.127693    1.200882
    3          1             0        0.145173    1.944532    0.592479
    4          1             0       -0.340144    0.286984    2.139073
    5          8             0        0.001136   -0.395629   -1.473562
    6          1             0       -0.166872   -1.078952    1.158672
 ---------------------------------------------------------------------

 Entering Gaussian System  

                          Input orientation:   
 ---------------------------------------------------------------------
 Center     Atomic     Atomic              Coordinates (Angstroms)
 Number     Number      Type              X           Y           Z 
 ---------------------------------------------------------------------
    1          6             0       -0.034165    0.579199    0.236001
    2          7             0        0.053918   -0.127693    1.200882
    3          1             0        0.145173    1.944532    0.592479
    4          1             0       -0.340144    0.286984    2.139073
    5          8             0        0.001136   -0.395629   -1.473562
    6          1             0       -0.166872   -1.078952    1.158672
 ---------------------------------------------------------------------

 Entering Gaussian System  

                          Input orientation:   
 ---------------------------------------------------------------------
 Center     Atomic     Atomic              Coordinates (Angstroms)
 Number     Number      Type              X           Y           Z 
 ---------------------------------------------------------------------
    1          6             0       -0.034165    0.579199    0.236001
    2          7             0        0.053918   -0.127693    1.200882
    3          1             0        0.145173    1.944532    0.592479
    4          1             0       -0.340144    0.286984    2.139073
    5          8             0        0.001136   -0.395629   -1.473562
    6          1             0       -0.166872   -1.078952    1.158672
 ---------------------------------------------------------------------

 Entering Gaussian System  

                          Input orientation:   
 ---------------------------------------------------------------------
 Center     Atomic     Atomic              Coordinates (Angstroms)
 Number     Number      Type              X           Y           Z 
 ---------------------------------------------------------------------
    1          6             0       -0.034165    0.579199    0.236001
    2          7             0        0.053918   -0.127693    1.200882
    3          1             0        0.145173    1.944532    0.592479
    4          1             0       -0.340144    0.286984    2.139073
    5          8             0        0.001136   -0.395629   -1.473562
    6          1             0       -0.166872   -1.078952    1.158672
 ---------------------------------------------------------------------

 Entering Gaussian System  

                          Input orientation:   
 ---------------------------------------------------------------------
 Center     Atomic     Atomic              Coordinates (Angstroms)
 Number     Number      Type              X           Y           Z 
 ---------------------------------------------------------------------
    1          6             0       -0.034165    0.579199    0.236001
    2          7             0        0.053918   -0.127693    1.200882
    3          1             0        0.145173    1.944532    0.592479
    4          1             0       -0.340144    0.286984    2.139073
    5          8             0        0.001136   -0.395629   -1.473562
    6          1             0       -0.166872   -1.078952    1.158672
 ---------------------------------------------------------------------

 Entering Gaussian System  

                          Input orientation:   
 ---------------------------------------------------------------------
 Center     Atomic     Atomic              Coordinates (Angstroms)
 Number     Number      Type              X           Y           Z 
 ---------------------------------------------------------------------
    1          6             0       -0.034165    0.579199    0.236001
    2          7             0        0.053918   -0.127693    1.200882
    3          1             0        0.145173    1.944532    0.592479
    4          1             0       -0.340144    0.286984    2.139073
    5          8             0        0.001136   -0.395629   -1.473562
    6          1             0       -0.166872   -1.078952    1.158672
 ---------------------------------------------------------------------

 Entering Gaussian System  

                          Input orientation:   
 ---------------------------------------------------------------------
 Center     Atomic     Atomic              Coordinates (Angstroms)
 Number     Number      Type              X           Y           Z 
 ---------------------------------------------------------------------
    1          6             0       -0.034165    0.579199    0.236001
    2          7             0        0.053918   -0.127693    1.200882
    3          1             0        0.145173    1.944532    0.592479
    4          1             0       -0.340144    0.286984    2.139073
    5          8             0        0.001136   -0.395629   -1.473562
    6          1             0       -0.166872   -1.078952    1.158672
 ---------------------------------------------------------------------

 Entering Gaussian System  

                          Input orientation:   
 ---------------------------------------------------------------------
 Center     Atomic     Atomic              Coordinates (Angstroms)
 Number     Number      Type              X           Y           Z 
 ---------------------------------------------------------------------
    1          6             0       -0.034165    0.579199    0.236001
    2          7             0        0.053918   -0.127693    1.200882
    3          1             0        0.145173    1.944532    0.592479
    4          1             0       -0.340144    0.286984    2.139073
    5          8             0        0.001136   -0.395629   -1.473562
    6          1             0       -0.166872   -1.078952    1.158672
 ---------------------------------------------------------------------

 Entering Gaussian System  

                          Input orientation:   
 ---------------------------------------------------------------------
 Center     Atomic     Atomic              Coordinates (Angstroms)
 Number     Number      Type              X           Y           Z 
 ---------------------------------------------------------------------
    1          6             0       -0.034165    0.579199    0.236001
    2          7             0        0.053918   -0.127693    1.200882
    3          1             0        0.145173    1.944532    0.592479
    4          1             0       -0.340144    0.286984    2.139073
    5          8             0        0.001136   -0.395629   -1.473562
    6          1             0       -0.166872   -1.078952    1.158672
 ---------------------------------------------------------------------

 Entering Gaussian System  

                          Input orientation:   
 ---------------------------------------------------------------------
 Center     Atomic     Atomic              Coordinates (Angstroms)
 Number     Number      Type              X           Y           Z 
 ---------------------------------------------------------------------
    1          6             0       -0.034165    0.579199    0.236001
    2          7             0        0.053918   -0.127693    1.200882
    3          1             0        0.145173    1.944532    0.592479
    4          1             0       -0.340144    0.286984    2.139073
    5          8             0        0.001136   -0.395629   -1.473562
    6          1             0       -0.166872   -1.078952    1.158672
 ---------------------------------------------------------------------

 Entering Gaussian System  

                          Input orientation:   
 ---------------------------------------------------------------------
 Center     Atomic     Atomic              Coordinates (Angstroms)
 Number     Number      Type              X           Y           Z 
 ---------------------------------------------------------------------
    1          6             0       -0.034165    0.579199    0.236001
    2          7             0        0.053918   -0.127693    1.200882
    3          1             0        0.145173    1.944532    0.592479
    4          1             0       -0.340144    0.286984    2.139073
    5          8             0        0.001136   -0.395629   -1.473562
    6          1             0       -0.166872   -1.078952    1.158672
 ---------------------------------------------------------------------

 Entering Gaussian System  

                          Input orientation:   
 ---------------------------------------------------------------------
 Center     Atomic     Atomic              Coordinates (Angstroms)
 Number     Number      Type              X           Y           Z 
 ---------------------------------------------------------------------
    1          6             0       -0.034165    0.579199    0.236001
    2          7             0        0.053918   -0.127693    1.200882
    3          1             0        0.145173    1.944532    0.592479
    4          1             0       -0.340144    0.286984    2.139073
    5          8             0        0.001136   -0.395629   -1.473562
    6          1             0       -0.166872   -1.078952    1.158672
 ---------------------------------------------------------------------

 Entering Gaussian System  

                          Input orientation:   
 ---------------------------------------------------------------------
 Center     Atomic     Atomic              Coordinates (Angstroms)
 Number     Number      Type              X           Y           Z 
 ---------------------------------------------------------------------
    1          6             0       -0.034165    0.579199    0.236001
    2          7             0        0.053918   -0.127693    1.200882
    3          1             0        0.145173    1.944532    0.592479
    4          1             0       -0.340144    0.286984    2.139073
    5          8             0        0.001136   -0.395629   -1.473562
    6          1             0       -0.166872   -1.078952    1.158672
 ---------------------------------------------------------------------

 Entering Gaussian System  

                          Input orientation:   
 ---------------------------------------------------------------------
 Center     Atomic     Atomic              Coordinates (Angstroms)
 Number     Number      Type              X           Y           Z 
 ---------------------------------------------------------------------
    1          6             0       -0.034165    0.579199    0.236001
    2          7             0        0.053918   -0.127693    1.200882
    3          1             0        0.145173    1.944532    0.592479
    4          1             0       -0.340144    0.286984    2.139073
    5          8             0        0.001136   -0.395629   -1.473562
    6          1             0       -0.166872   -1.078952    1.158672
 ---------------------------------------------------------------------

 Entering Gaussian System  

                          Input orientation:   
 ---------------------------------------------------------------------
 Center     Atomic     Atomic              Coordinates (Angstroms)
 Number     Number      Type              X           Y           Z 
 ---------------------------------------------------------------------
    1          6             0       -0.034165    0.579199    0.236001
    2          7             0        0.053918   -0.127693    1.200882
    3          1             0        0.145173    1.944532    0.592479
    4          1             0       -0.340144    0.286984    2.139073
    5          8             0        0.001136   -0.395629   -1.473562
    6          1             0       -0.166872   -1.078952    1.158672
 ---------------------------------------------------------------------

 Entering Gaussian System  

                          Input orientation:   
 ---------------------------------------------------------------------
 Center     Atomic     Atomic              Coordinates (Angstroms)
 Number     Number      Type              X           Y           Z 
 ---------------------------------------------------------------------
    1          6             0       -0.034165    0.579199    0.236001
    2          7             0        0.053918   -0.127693    1.200882
    3          1             0        0.145173    1.944532    0.592479
    4          1             0       -0.340144    0.286984    2.139073
    5          8             0        0.001136   -0.395629   -1.473562
    6          1             0       -0.166872   -1.078952    1.158672
 ---------------------------------------------------------------------

 Entering Gaussian System  

                          Input orientation:   
 ---------------------------------------------------------------------
 Center     Atomic     Atomic              Coordinates (Angstroms)
 Number     Number      Type              X           Y           Z 
 ---------------------------------------------------------------------
    1          6             0       -0.034165    0.579199    0.236001
    2          7             0        0.053918   -0.127693    1.200882
    3          1             0        0.145173    1.944532    0.592479
    4          1             0       -0.340144    0.286984    2.139073
    5          8             0        0.001136   -0.395629   -1.473562
    6          1             0       -0.166872   -1.078952    1.158672
 ---------------------------------------------------------------------

 Entering Gaussian System  

                          Input orientation:   
 ---------------------------------------------------------------------
 Center     Atomic     Atomic              Coordinates (Angstroms)
 Number     Number      Type              X           Y           Z 
 ---------------------------------------------------------------------
    1          6             0       -0.034165    0.579199    0.236001
    2          7             0        0.053918   -0.127693    1.200882
    3          1             0        0.145173    1.944532    0.592479
    4          1             0       -0.340144    0.286984    2.139073
    5          8             0        0.001136   -0.395629   -1.473562
    6          1             0       -0.166872   -1.078952    1.158672
 ---------------------------------------------------------------------

 Entering Gaussian System  

                          Input orientation:   
 ---------------------------------------------------------------------
 Center     Atomic     Atomic              Coordinates (Angstroms)
 Number     Number      Type              X           Y           Z 
 ---------------------------------------------------------------------
    1          6             0       -0.034165    0.579199    0.236001
    2          7             0        0.053918   -0.127693    1.200882
    3          1             0        0.145173    1.944532    0.592479
    4          1             0       -0.340144    0.286984    2.139073
    5          8             0        0.001136   -0.395629   -1.473562
    6          1             0       -0.166872   -1.078952    1.158672
 ---------------------------------------------------------------------

 Entering Gaussian System  

                          Input orientation:   
 ---------------------------------------------------------------------
 Center     Atomic     Atomic              Coordinates (Angstroms)
 Number     Number      Type              X           Y           Z 
 ---------------------------------------------------------------------
    1          6             0       -0.034165    0.579199    0.236001
    2          7             0        0.053918   -0.127693    1.200882
    3          1             0        0.145173    1.944532    0.592479
    4          1             0       -0.340144    0.286984    2.139073
    5          8             0        0.001136   -0.395629   -1.473562
    6          1             0       -0.166872   -1.078952    1.158672
 ---------------------------------------------------------------------

 Entering Gaussian System  

                          Input orientation:   
 ---------------------------------------------------------------------
 Center     Atomic     Atomic              Coordinates (Angstroms)
 Number     Number      Type              X           Y           Z 
 ---------------------------------------------------------------------
    1          6             0       -0.034165    0.579199    0.236001
    2          7             0        0.053918   -0.127693    1.200882
    3          1             0        0.145173    1.944532    0.592479
    4          1             0       -0.340144    0.286984    2.139073
    5          8             0        0.001136   -0.395629   -1.473562
    6          1             0       -0.166872   -1.078952    1.158672
 ---------------------------------------------------------------------

 Entering Gaussian System  

                          Input orientation:   
 ---------------------------------------------------------------------
 Center     Atomic     Atomic              Coordinates (Angstroms)
 Number     Number      Type              X           Y           Z 
 ---------------------------------------------------------------------
    1          6             0       -0.034165    0.579199    0.236001
    2          7             0        0.053918   -0.127693    1.200882
    3          1             0        0.145173    1.944532    0.592479
    4          1             0       -0.340144    0.286984    2.139073
    5          8             0        0.001136   -0.395629   -1.473562
    6          1             0       -0.166872   -1.078952    1.158672
 ---------------------------------------------------------------------

 Entering Gaussian System  

                          Input orientation:   
 ---------------------------------------------------------------------
 Center     Atomic     Atomic              Coordinates (Angstroms)
 Number     Number      Type              X           Y           Z 
 ---------------------------------------------------------------------
    1          6             0       -0.034165    0.579199    0.236001
    2          7             0        0.053918   -0.127693    1.200882
    3          1             0        0.145173    1.944532    0.592479
    4          1             0       -0.340144    0.286984    2.139073
    5          8             0        0.001136   -0.395629   -1.473562
    6          1             0       -0.166872   -1.078952    1.158672
 ---------------------------------------------------------------------

 Entering Gaussian System  

                          Input orientation:   
 ---------------------------------------------------------------------
 Center     Atomic     Atomic              Coordinates (Angstroms)
 Number     Number      Type              X           Y           Z 
 ---------------------------------------------------------------------
    1          6             0       -0.034165    0.579199    0.236001
    2          7             0        0.053918   -0.127693    1.200882
    3          1             0        0.145173    1.944532    0.592479
    4          1             0       -0.340144    0.286984    2.139073
    5          8             0        0.001136   -0.395629   -1.473562
    6          1             0       -0.166872   -1.078952    1.158672
 ---------------------------------------------------------------------

 Entering Gaussian System  

                          Input orientation:   
 ---------------------------------------------------------------------
 Center     Atomic     Atomic              Coordinates (Angstroms)
 Number     Number      Type              X           Y           Z 
 ---------------------------------------------------------------------
    1          6             0       -0.034165    0.579199    0.236001
    2          7             0        0.053918   -0.127693    1.200882
    3          1             0        0.145173    1.944532    0.592479
    4          1             0       -0.340144    0.286984    2.139073
    5          8             0        0.001136   -0.395629   -1.473562
    6          1             0       -0.166872   -1.078952    1.158672
 ---------------------------------------------------------------------

 Entering Gaussian System  

                          Input orientation:   
 ---------------------------------------------------------------------
 Center     Atomic     Atomic              Coordinates (Angstroms)
 Number     Number      Type              X           Y           Z 
 ---------------------------------------------------------------------
    1          6             0       -0.034165    0.579199    0.236001
    2          7             0        0.053918   -0.127693    1.200882
    3          1             0        0.145173    1.944532    0.592479
    4          1             0       -0.340144    0.286984    2.139073
    5          8             0        0.001136   -0.395629   -1.473562
    6          1             0       -0.166872   -1.078952    1.158672
 ---------------------------------------------------------------------

 Entering Gaussian System  

                          Input orientation:   
 ---------------------------------------------------------------------
 Center     Atomic     Atomic              Coordinates (Angstroms)
 Number     Number      Type              X           Y           Z 
 ---------------------------------------------------------------------
    1          6             0       -0.034165    0.579199    0.236001
    2          7             0        0.053918   -0.127693    1.200882
    3          1             0        0.145173    1.944532    0.592479
    4          1             0       -0.340144    0.286984    2.139073
    5          8             0        0.001136   -0.395629   -1.473562
    6          1             0       -0.166872   -1.078952    1.158672
 ---------------------------------------------------------------------

 Entering Gaussian System  

                          Input orientation:   
 ---------------------------------------------------------------------
 Center     Atomic     Atomic              Coordinates (Angstroms)
 Number     Number      Type              X           Y           Z 
 ---------------------------------------------------------------------
    1          6             0       -0.034165    0.579199    0.236001
    2          7             0        0.053918   -0.127693    1.200882
    3          1             0        0.145173    1.944532    0.592479
    4          1             0       -0.340144    0.286984    2.139073
    5          8             0        0.001136   -0.395629   -1.473562
    6          1             0       -0.166872   -1.078952    1.158672
 ---------------------------------------------------------------------

 Entering Gaussian System  

                          Input orientation:   
 ---------------------------------------------------------------------
 Center     Atomic     Atomic              Coordinates (Angstroms)
 Number     Number      Type              X           Y           Z 
 ---------------------------------------------------------------------
    1          6             0       -0.034165    0.579199    0.236001
    2          7             0        0.053918   -0.127693    1.200882
    3          1             0        0.145173    1.944532    0.592479
    4          1             0       -0.340144    0.286984    2.139073
    5          8             0        0.001136   -0.395629   -1.473562
    6          1             0       -0.166872   -1.078952    1.158672
 ---------------------------------------------------------------------

 Entering Gaussian System  

                          Input orientation:   
 ---------------------------------------------------------------------
 Center     Atomic     Atomic              Coordinates (Angstroms)
 Number     Number      Type              X           Y           Z 
 ---------------------------------------------------------------------
    1          6             0       -0.034165    0.579199    0.236001
    2          7             0        0.053918   -0.127693    1.200882
    3          1             0        0.145173    1.944532    0.592479
    4          1             0       -0.340144    0.286984    2.139073
    5          8             0        0.001136   -0.395629   -1.473562
    6          1             0       -0.166872   -1.078952    1.158672
 ---------------------------------------------------------------------

 Entering Gaussian System  

                          Input orientation:   
 ---------------------------------------------------------------------
 Center     Atomic     Atomic              Coordinates (Angstroms)
 Number     Number      Type              X           Y           Z 
 ---------------------------------------------------------------------
    1          6             0       -0.034165    0.579199    0.236001
    2          7             0        0.053918   -0.127693    1.200882
    3          1             0        0.145173    1.944532    0.592479
    4          1             0       -0.340144    0.286984    2.139073
    5          8             0        0.001136   -0.395629   -1.473562
    6          1             0       -0.166872   -1.078952    1.158672
 ---------------------------------------------------------------------

 Entering Gaussian System  

                          Input orientation:   
 ---------------------------------------------------------------------
 Center     Atomic     Atomic              Coordinates (Angstroms)
 Number     Number      Type              X           Y           Z 
 ---------------------------------------------------------------------
    1          6             0       -0.034165    0.579199    0.236001
    2          7             0        0.053918   -0.127693    1.200882
    3          1             0        0.145173    1.944532    0.592479
    4          1             0       -0.340144    0.286984    2.139073
    5          8             0        0.001136   -0.395629   -1.473562
    6          1             0       -0.166872   -1.078952    1.158672
 ---------------------------------------------------------------------

 Entering Gaussian System  

                          Input orientation:   
 ---------------------------------------------------------------------
 Center     Atomic     Atomic              Coordinates (Angstroms)
 Number     Number      Type              X           Y           Z 
 ---------------------------------------------------------------------
    1          6             0       -0.034165    0.579199    0.236001
    2          7             0        0.053918   -0.127693    1.200882
    3          1             0        0.145173    1.944532    0.592479
    4          1             0       -0.340144    0.286984    2.139073
    5          8             0        0.001136   -0.395629   -1.473562
    6          1             0       -0.166872   -1.078952    1.158672
 ---------------------------------------------------------------------

 Entering Gaussian System  

                          Input orientation:   
 ---------------------------------------------------------------------
 Center     Atomic     Atomic              Coordinates (Angstroms)
 Number     Number      Type              X           Y           Z 
 ---------------------------------------------------------------------
    1          6             0       -0.034165    0.579199    0.236001
    2          7             0        0.053918   -0.127693    1.200882
    3          1             0        0.145173    1.944532    0.592479
    4          1             0       -0.340144    0.286984    2.139073
    5          8             0        0.001136   -0.395629   -1.473562
    6          1             0       -0.166872   -1.078952    1.158672
 ---------------------------------------------------------------------

 Entering Gaussian System  

                          Input orientation:   
 ---------------------------------------------------------------------
 Center     Atomic     Atomic              Coordinates (Angstroms)
 Number     Number      Type              X           Y           Z 
 ---------------------------------------------------------------------
    1          6             0       -0.034165    0.579199    0.236001
    2          7             0        0.053918   -0.127693    1.200882
    3          1             0        0.145173    1.944532    0.592479
    4          1             0       -0.340144    0.286984    2.139073
    5          8             0        0.001136   -0.395629   -1.473562
    6          1             0       -0.166872   -1.078952    1.158672
 ---------------------------------------------------------------------

 Entering Gaussian System  

                          Input orientation:   
 ---------------------------------------------------------------------
 Center     Atomic     Atomic              Coordinates (Angstroms)
 Number     Number      Type              X           Y           Z 
 ---------------------------------------------------------------------
    1          6             0       -0.034165    0.579199    0.236001
    2          7             0        0.053918   -0.127693    1.200882
    3          1             0        0.145173    1.944532    0.592479
    4          1             0       -0.340144    0.286984    2.139073
    5          8             0        0.001136   -0.395629   -1.473562
    6          1             0       -0.166872   -1.078952    1.158672
 ---------------------------------------------------------------------

 Entering Gaussian System  

                          Input orientation:   
 ---------------------------------------------------------------------
 Center     Atomic     Atomic              Coordinates (Angstroms)
 Number     Number      Type              X           Y           Z 
 ---------------------------------------------------------------------
    1          6             0       -0.034165    0.579199    0.236001
    2          7             0        0.053918   -0.127693    1.200882
    3          1             0        0.145173    1.944532    0.592479
    4          1             0       -0.340144    0.286984    2.139073
    5          8             0        0.001136   -0.395629   -1.473562
    6          1             0       -0.166872   -1.078952    1.158672
 ---------------------------------------------------------------------

 Entering Gaussian System  

                          Input orientation:   
 ---------------------------------------------------------------------
 Center     Atomic     Atomic              Coordinates (Angstroms)
 Number     Number      Type              X           Y           Z 
 ---------------------------------------------------------------------
    1          6             0       -0.034165    0.579199    0.236001
    2          7             0        0.053918   -0.127693    1.200882
    3          1             0        0.145173    1.944532    0.592479
    4          1             0       -0.340144    0.286984    2.139073
    5          8             0        0.001136   -0.395629   -1.473562
    6          1             0       -0.166872   -1.078952    1.158672
 ---------------------------------------------------------------------

 Entering Gaussian System  

                          Input orientation:   
 ---------------------------------------------------------------------
 Center     Atomic     Atomic              Coordinates (Angstroms)
 Number     Number      Type              X           Y           Z 
 ---------------------------------------------------------------------
    1          6             0       -0.034165    0.579199    0.236001
    2          7             0        0.053918   -0.127693    1.200882
    3          1             0        0.145173    1.944532    0.592479
    4          1             0       -0.340144    0.286984    2.139073
    5          8             0        0.001136   -0.395629   -1.473562
    6          1             0       -0.166872   -1.078952    1.158672
 ---------------------------------------------------------------------

 Entering Gaussian System  

                          Input orientation:   
 ---------------------------------------------------------------------
 Center     Atomic     Atomic              Coordinates (Angstroms)
 Number     Number      Type              X           Y           Z 
 ---------------------------------------------------------------------
    1          6             0       -0.034165    0.579199    0.236001
    2          7             0        0.053918   -0.127693    1.200882
    3          1             0        0.145173    1.944532    0.592479
    4          1             0       -0.340144    0.286984    2.139073
    5          8             0        0.001136   -0.395629   -1.473562
    6          1             0       -0.166872   -1.078952    1.158672
 ---------------------------------------------------------------------

 Entering Gaussian System  

                          Input orientation:   
 ---------------------------------------------------------------------
 Center     Atomic     Atomic              Coordinates (Angstroms)
 Number     Number      Type              X           Y           Z 
 ---------------------------------------------------------------------
    1          6             0       -0.034165    0.579199    0.236001
    2          7             0        0.053918   -0.127693    1.200882
    3          1             0        0.145173    1.944532    0.592479
    4          1             0       -0.340144    0.286984    2.139073
    5          8             0        0.001136   -0.395629   -1.473562
    6          1             0       -0.166872   -1.078952    1.158672
 ---------------------------------------------------------------------

 Entering Gaussian System  

                          Input orientation:   
 ---------------------------------------------------------------------
 Center     Atomic     Atomic              Coordinates (Angstroms)
 Number     Number      Type              X           Y           Z 
 ---------------------------------------------------------------------
    1          6             0       -0.034165    0.579199    0.236001
    2          7             0        0.053918   -0.127693    1.200882
    3          1             0        0.145173    1.944532    0.592479
    4          1             0       -0.340144    0.286984    2.139073
    5          8             0        0.001136   -0.395629   -1.473562
    6          1             0       -0.166872   -1.078952    1.158672
 ---------------------------------------------------------------------

 Entering Gaussian System  

                          Input orientation:   
 ---------------------------------------------------------------------
 Center     Atomic     Atomic              Coordinates (Angstroms)
 Number     Number      Type              X           Y           Z 
 ---------------------------------------------------------------------
    1          6             0       -0.034165    0.579199    0.236001
    2          7             0        0.053918   -0.127693    1.200882
    3          1             0        0.145173    1.944532    0.592479
    4          1             0       -0.340144    0.286984    2.139073
    5          8             0        0.001136   -0.395629   -1.473562
    6          1             0       -0.166872   -1.078952    1.158672
 ---------------------------------------------------------------------

 Entering Gaussian System  

                          Input orientation:   
 ---------------------------------------------------------------------
 Center     Atomic     Atomic              Coordinates (Angstroms)
 Number     Number      Type              X           Y           Z 
 ---------------------------------------------------------------------
    1          6             0       -0.034165    0.579199    0.236001
    2          7             0        0.053918   -0.127693    1.200882
    3          1             0        0.145173    1.944532    0.592479
    4          1             0       -0.340144    0.286984    2.139073
    5          8             0        0.001136   -0.395629   -1.473562
    6          1             0       -0.166872   -1.078952    1.158672
 ---------------------------------------------------------------------

 Entering Gaussian System  

                          Input orientation:   
 ---------------------------------------------------------------------
 Center     Atomic     Atomic              Coordinates (Angstroms)
 Number     Number      Type              X           Y           Z 
 ---------------------------------------------------------------------
    1          6             0       -0.034165    0.579199    0.236001
    2          7             0        0.053918   -0.127693    1.200882
    3          1             0        0.145173    1.944532    0.592479
    4          1             0       -0.340144    0.286984    2.139073
    5          8             0        0.001136   -0.395629   -1.473562
    6          1             0       -0.166872   -1.078952    1.158672
 ---------------------------------------------------------------------

 Entering Gaussian System  

                          Input orientation:   
 ---------------------------------------------------------------------
 Center     Atomic     Atomic              Coordinates (Angstroms)
 Number     Number      Type              X           Y           Z 
 ---------------------------------------------------------------------
    1          6             0       -0.034165    0.579199    0.236001
    2          7             0        0.053918   -0.127693    1.200882
    3          1             0        0.145173    1.944532    0.592479
    4          1             0       -0.340144    0.286984    2.139073
    5          8             0        0.001136   -0.395629   -1.473562
    6          1             0       -0.166872   -1.078952    1.158672
 ---------------------------------------------------------------------

 Entering Gaussian System  

                          Input orientation:   
 ---------------------------------------------------------------------
 Center     Atomic     Atomic              Coordinates (Angstroms)
 Number     Number      Type              X           Y           Z 
 ---------------------------------------------------------------------
    1          6             0       -0.034165    0.579199    0.236001
    2          7             0        0.053918   -0.127693    1.200882
    3          1             0        0.145173    1.944532    0.592479
    4          1             0       -0.340144    0.286984    2.139073
    5          8             0        0.001136   -0.395629   -1.473562
    6          1             0       -0.166872   -1.078952    1.158672
 ---------------------------------------------------------------------

 Entering Gaussian System  

                          Input orientation:   
 ---------------------------------------------------------------------
 Center     Atomic     Atomic              Coordinates (Angstroms)
 Number     Number      Type              X           Y           Z 
 ---------------------------------------------------------------------
    1          6             0       -0.034165    0.579199    0.236001
    2          7             0        0.053918   -0.127693    1.200882
    3          1             0        0.145173    1.944532    0.592479
    4          1             0       -0.340144    0.286984    2.139073
    5          8             0        0.001136   -0.395629   -1.473562
    6          1             0       -0.166872   -1.078952    1.158672
 ---------------------------------------------------------------------

 Entering Gaussian System  

                          Input orientation:   
 ---------------------------------------------------------------------
 Center     Atomic     Atomic              Coordinates (Angstroms)
 Number     Number      Type              X           Y           Z 
 ---------------------------------------------------------------------
    1          6             0       -0.034165    0.579199    0.236001
    2          7             0        0.053918   -0.127693    1.200882
    3          1             0        0.145173    1.944532    0.592479
    4          1             0       -0.340144    0.286984    2.139073
    5          8             0        0.001136   -0.395629   -1.473562
    6          1             0       -0.166872   -1.078952    1.158672
 ---------------------------------------------------------------------

 Entering Gaussian System  

                          Input orientation:   
 ---------------------------------------------------------------------
 Center     Atomic     Atomic              Coordinates (Angstroms)
 Number     Number      Type              X           Y           Z 
 ---------------------------------------------------------------------
    1          6             0       -0.034165    0.579199    0.236001
    2          7             0        0.053918   -0.127693    1.200882
    3          1             0        0.145173    1.944532    0.592479
    4          1             0       -0.340144    0.286984    2.139073
    5          8             0        0.001136   -0.395629   -1.473562
    6          1             0       -0.166872   -1.078952    1.158672
 ---------------------------------------------------------------------

 Entering Gaussian System  

                          Input orientation:   
 ---------------------------------------------------------------------
 Center     Atomic     Atomic              Coordinates (Angstroms)
 Number     Number      Type              X           Y           Z 
 ---------------------------------------------------------------------
    1          6             0       -0.034165    0.579199    0.236001
    2          7             0        0.053918   -0.127693    1.200882
    3          1             0        0.145173    1.944532    0.592479
    4          1             0       -0.340144    0.286984    2.139073
    5          8             0        0.001136   -0.395629   -1.473562
    6          1             0       -0.166872   -1.078952    1.158672
 ---------------------------------------------------------------------

 Entering Gaussian System  

                          Input orientation:   
 ---------------------------------------------------------------------
 Center     Atomic     Atomic              Coordinates (Angstroms)
 Number     Number      Type              X           Y           Z 
 ---------------------------------------------------------------------
    1          6             0       -0.034165    0.579199    0.236001
    2          7             0        0.053918   -0.127693    1.200882
    3          1             0        0.145173    1.944532    0.592479
    4          1             0       -0.340144    0.286984    2.139073
    5          8             0        0.001136   -0.395629   -1.473562
    6          1             0       -0.166872   -1.078952    1.158672
 ---------------------------------------------------------------------

 Entering Gaussian System  

                          Input orientation:   
 ---------------------------------------------------------------------
 Center     Atomic     Atomic              Coordinates (Angstroms)
 Number     Number      Type              X           Y           Z 
 ---------------------------------------------------------------------
    1          6             0       -0.034165    0.579199    0.236001
    2          7             0        0.053918   -0.127693    1.200882
    3          1             0        0.145173    1.944532    0.592479
    4          1             0       -0.340144    0.286984    2.139073
    5          8             0        0.001136   -0.395629   -1.473562
    6          1             0       -0.166872   -1.078952    1.158672
 ---------------------------------------------------------------------
