
 Entering Gaussian System  

                          Input orientation:   
 ---------------------------------------------------------------------
 Center     Atomic     Atomic              Coordinates (Angstroms)
 Number     Number      Type              X           Y           Z 
 ---------------------------------------------------------------------
    1          6             0        0.000000    0.401721   -0.096031
    2          7             0        0.000000   -0.162504    1.145371
    3          1             0        0.000000    1.541283   -0.009698
    4          1             0        0.000000    0.374796    1.979555
    5          8             0        0.000000   -0.207339   -1.131411
    6          1             0        0.000000   -1.153754    1.217289
 ---------------------------------------------------------------------

 Entering Gaussian System  

                          Input orientation:   
 ---------------------------------------------------------------------
 Center     Atomic     Atomic              Coordinates (Angstroms)
 Number     Number      Type              X           Y           Z 
 ---------------------------------------------------------------------
    1          6             0        0.004934    0.404926   -0.093542
    2          7             0       -0.019502   -0.163941    1.145113
    3          1             0       -0.023296    1.545233   -0.007871
    4          1             0        0.137517    0.380814    1.980053
    5          8             0        0.002042   -0.209120   -1.133466
    6          1             0        0.066246   -1.153681    1.221505
 ---------------------------------------------------------------------

 Entering Gaussian System  

                          Input orientation:   
 ---------------------------------------------------------------------
 Center     Atomic     Atomic              Coordinates (Angstroms)
 Number     Number      Type              X           Y           Z 
 ---------------------------------------------------------------------
    1          6             0        0.008594    0.414001   -0.082885
    2          7             0       -0.026590   -0.165955    1.145413
    3          1             0       -0.033813    1.543786   -0.016018
    4          1             0        0.177493    0.383606    1.979871
    5          8             0        0.001863   -0.214465   -1.141204
    6          1             0        0.094725   -1.150338    1.221506
 ---------------------------------------------------------------------

 Entering Gaussian System  

                          Input orientation:   
 ---------------------------------------------------------------------
 Center     Atomic     Atomic              Coordinates (Angstroms)
 Number     Number      Type              X           Y           Z 
 ---------------------------------------------------------------------
    1          6             0        0.012891    0.431185   -0.066986
    2          7             0       -0.031206   -0.169522    1.145921
    3          1             0       -0.045804    1.539003   -0.032000
    4          1             0        0.196926    0.378078    1.970732
    5          8             0        0.000977   -0.223805   -1.151863
    6          1             0        0.114403   -1.146948    1.219293
 ---------------------------------------------------------------------

 Entering Gaussian System  

                          Input orientation:   
 ---------------------------------------------------------------------
 Center     Atomic     Atomic              Coordinates (Angstroms)
 Number     Number      Type              X           Y           Z 
 ---------------------------------------------------------------------
    1          6             0        0.015772    0.450620   -0.048485
    2          7             0       -0.030724   -0.174002    1.147847
    3          1             0       -0.057653    1.538765   -0.053933
    4          1             0        0.188396    0.372764    1.957229
    5          8             0       -0.000031   -0.234295   -1.165314
    6          1             0        0.109708   -1.144241    1.221024
 ---------------------------------------------------------------------

 Entering Gaussian System  

                          Input orientation:   
 ---------------------------------------------------------------------
 Center     Atomic     Atomic              Coordinates (Angstroms)
 Number     Number      Type              X           Y           Z 
 ---------------------------------------------------------------------
    1          6             0        0.019519    0.473930   -0.028687
    2          7             0       -0.033475   -0.178656    1.150970
    3          1             0       -0.071439    1.537656   -0.068509
    4          1             0        0.200035    0.363008    1.944365
    5          8             0       -0.000838   -0.247214   -1.180996
    6          1             0        0.118307   -1.141378    1.218066
 ---------------------------------------------------------------------

 Entering Gaussian System  

                          Input orientation:   
 ---------------------------------------------------------------------
 Center     Atomic     Atomic              Coordinates (Angstroms)
 Number     Number      Type              X           Y           Z 
 ---------------------------------------------------------------------
    1          6             0        0.024697    0.499921   -0.008317
    2          7             0       -0.037421   -0.183102    1.154879
    3          1             0       -0.089671    1.536250   -0.075223
    4          1             0        0.216184    0.352079    1.938965
    5          8             0       -0.001974   -0.261940   -1.198636
    6          1             0        0.131648   -1.143236    1.213105
 ---------------------------------------------------------------------

 Entering Gaussian System  

                          Input orientation:   
 ---------------------------------------------------------------------
 Center     Atomic     Atomic              Coordinates (Angstroms)
 Number     Number      Type              X           Y           Z 
 ---------------------------------------------------------------------
    1          6             0        0.030415    0.523756    0.010845
    2          7             0       -0.041439   -0.187158    1.160887
    3          1             0       -0.107392    1.541094   -0.086593
    4          1             0        0.228641    0.344154    1.944103
    5          8             0       -0.003428   -0.275623   -1.217670
    6          1             0        0.147768   -1.150618    1.209650
 ---------------------------------------------------------------------

 Entering Gaussian System  

                          Input orientation:   
 ---------------------------------------------------------------------
 Center     Atomic     Atomic              Coordinates (Angstroms)
 Number     Number      Type              X           Y           Z 
 ---------------------------------------------------------------------
    1          6             0        0.037074    0.545559    0.028029
    2          7             0       -0.045724   -0.190925    1.168158
    3          1             0       -0.126186    1.553928   -0.099498
    4          1             0        0.238047    0.338938    1.960373
    5          8             0       -0.005297   -0.288418   -1.236902
    6          1             0        0.167076   -1.162585    1.205742
 ---------------------------------------------------------------------

 Entering Gaussian System  

                          Input orientation:   
 ---------------------------------------------------------------------
 Center     Atomic     Atomic              Coordinates (Angstroms)
 Number     Number      Type              X           Y           Z 
 ---------------------------------------------------------------------
    1          6             0        0.044124    0.565126    0.042382
    2          7             0       -0.050596   -0.194482    1.176150
    3          1             0       -0.145313    1.575305   -0.111945
    4          1             0        0.249543    0.333677    1.983718
    5          8             0       -0.007260   -0.300214   -1.254967
    6          1             0        0.189659   -1.175183    1.199499
 ---------------------------------------------------------------------

 Entering Gaussian System  

                          Input orientation:   
 ---------------------------------------------------------------------
 Center     Atomic     Atomic              Coordinates (Angstroms)
 Number     Number      Type              X           Y           Z 
 ---------------------------------------------------------------------
    1          6             0        0.052928    0.582733    0.053417
    2          7             0       -0.057143   -0.197732    1.185215
    3          1             0       -0.170369    1.603056   -0.122172
    4          1             0        0.268678    0.321796    2.007085
    5          8             0       -0.009562   -0.311160   -1.271267
    6          1             0        0.218326   -1.181927    1.187619
 ---------------------------------------------------------------------

 Entering Gaussian System  

                          Input orientation:   
 ---------------------------------------------------------------------
 Center     Atomic     Atomic              Coordinates (Angstroms)
 Number     Number      Type              X           Y           Z 
 ---------------------------------------------------------------------
    1          6             0        0.063690    0.598058    0.060768
    2          7             0       -0.064981   -0.200577    1.195763
    3          1             0       -0.202879    1.631555   -0.129578
    4          1             0        0.293120    0.299892    2.024110
    5          8             0       -0.012298   -0.320902   -1.285449
    6          1             0        0.250643   -1.176957    1.168945
 ---------------------------------------------------------------------

 Entering Gaussian System  

                          Input orientation:   
 ---------------------------------------------------------------------
 Center     Atomic     Atomic              Coordinates (Angstroms)
 Number     Number      Type              X           Y           Z 
 ---------------------------------------------------------------------
    1          6             0        0.076284    0.611226    0.064188
    2          7             0       -0.073138   -0.202969    1.207620
    3          1             0       -0.243120    1.653429   -0.132539
    4          1             0        0.316946    0.268287    2.031700
    5          8             0       -0.015553   -0.329222   -1.297085
    6          1             0        0.282152   -1.158831    1.143477
 ---------------------------------------------------------------------

 Entering Gaussian System  

                          Input orientation:   
 ---------------------------------------------------------------------
 Center     Atomic     Atomic              Coordinates (Angstroms)
 Number     Number      Type              X           Y           Z 
 ---------------------------------------------------------------------
    1          6             0        0.090256    0.622243    0.064303
    2          7             0       -0.081108   -0.204633    1.220282
    3          1             0       -0.290913    1.663154   -0.131381
    4          1             0        0.339275    0.229405    2.031065
    5          8             0       -0.019173   -0.335981   -1.306338
    6          1             0        0.309489   -1.130521    1.112513
 ---------------------------------------------------------------------

 Entering Gaussian System  

                          Input orientation:   
 ---------------------------------------------------------------------
 Center     Atomic     Atomic              Coordinates (Angstroms)
 Number     Number      Type              X           Y           Z 
 ---------------------------------------------------------------------
    1          6             0        0.104850    0.631508    0.062164
    2          7             0       -0.088959   -0.205336    1.232741
    3          1             0       -0.343866    1.658553   -0.125452
    4          1             0        0.362778    0.188111    2.026962
    5          8             0       -0.022864   -0.341419   -1.313597
    6          1             0        0.332859   -1.098922    1.078249
 ---------------------------------------------------------------------

 Entering Gaussian System  

                          Input orientation:   
 ---------------------------------------------------------------------
 Center     Atomic     Atomic              Coordinates (Angstroms)
 Number     Number      Type              X           Y           Z 
 ---------------------------------------------------------------------
    1          6             0        0.119423    0.638751    0.059169
    2          7             0       -0.096849   -0.204656    1.243899
    3          1             0       -0.399690    1.640377   -0.114569
    4          1             0        0.390147    0.150435    2.026670
    5          8             0       -0.026371   -0.345644   -1.319588
    6          1             0        0.353114   -1.071759    1.043407
 ---------------------------------------------------------------------

 Entering Gaussian System  

                          Input orientation:   
 ---------------------------------------------------------------------
 Center     Atomic     Atomic              Coordinates (Angstroms)
 Number     Number      Type              X           Y           Z 
 ---------------------------------------------------------------------
    1          6             0        0.133202    0.644024    0.056424
    2          7             0       -0.105206   -0.202367    1.252822
    3          1             0       -0.455291    1.610558   -0.098196
    4          1             0        0.425979    0.118713    2.033549
    5          8             0       -0.029366   -0.348948   -1.324637
    6          1             0        0.372560   -1.052384    1.009015
 ---------------------------------------------------------------------

 Entering Gaussian System  

                          Input orientation:   
 ---------------------------------------------------------------------
 Center     Atomic     Atomic              Coordinates (Angstroms)
 Number     Number      Type              X           Y           Z 
 ---------------------------------------------------------------------
    1          6             0        0.145030    0.647119    0.055155
    2          7             0       -0.113890   -0.198294    1.258880
    3          1             0       -0.504475    1.572250   -0.076240
    4          1             0        0.469506    0.096893    2.049575
    5          8             0       -0.031586   -0.351451   -1.329457
    6          1             0        0.393404   -1.046004    0.978502
 ---------------------------------------------------------------------

 Entering Gaussian System  

                          Input orientation:   
 ---------------------------------------------------------------------
 Center     Atomic     Atomic              Coordinates (Angstroms)
 Number     Number      Type              X           Y           Z 
 ---------------------------------------------------------------------
    1          6             0        0.154163    0.647801    0.056979
    2          7             0       -0.121765   -0.193749    1.261516
    3          1             0       -0.545481    1.536469   -0.050206
    4          1             0        0.515298    0.087696    2.071802
    5          8             0       -0.032920   -0.353398   -1.334783
    6          1             0        0.410597   -1.041399    0.956408
 ---------------------------------------------------------------------

 Entering Gaussian System  

                          Input orientation:   
 ---------------------------------------------------------------------
 Center     Atomic     Atomic              Coordinates (Angstroms)
 Number     Number      Type              X           Y           Z 
 ---------------------------------------------------------------------
    1          6             0        0.160154    0.645609    0.063037
    2          7             0       -0.126940   -0.190086    1.260890
    3          1             0       -0.578224    1.512864   -0.023155
    4          1             0        0.552424    0.091770    2.091406
    5          8             0       -0.033457   -0.354673   -1.341192
    6          1             0        0.415420   -1.026412    0.948008
 ---------------------------------------------------------------------

 Entering Gaussian System  

                          Input orientation:   
 ---------------------------------------------------------------------
 Center     Atomic     Atomic              Coordinates (Angstroms)
 Number     Number      Type              X           Y           Z 
 ---------------------------------------------------------------------
    1          6             0        0.162824    0.640302    0.073407
    2          7             0       -0.128905   -0.187476    1.257838
    3          1             0       -0.601931    1.507572    0.003814
    4          1             0        0.577419    0.104992    2.098186
    5          8             0       -0.033232   -0.355231   -1.348876
    6          1             0        0.406141   -0.998523    0.955067
 ---------------------------------------------------------------------

 Entering Gaussian System  

                          Input orientation:   
 ---------------------------------------------------------------------
 Center     Atomic     Atomic              Coordinates (Angstroms)
 Number     Number      Type              X           Y           Z 
 ---------------------------------------------------------------------
    1          6             0        0.162703    0.632258    0.087037
    2          7             0       -0.127817   -0.185243    1.253424
    3          1             0       -0.617445    1.519996    0.029141
    4          1             0        0.588914    0.121473    2.085444
    5          8             0       -0.032464   -0.355007   -1.357397
    6          1             0        0.384313   -0.966167    0.976643
 ---------------------------------------------------------------------

 Entering Gaussian System  

                          Input orientation:   
 ---------------------------------------------------------------------
 Center     Atomic     Atomic              Coordinates (Angstroms)
 Number     Number      Type              X           Y           Z 
 ---------------------------------------------------------------------
    1          6             0        0.160562    0.621928    0.102405
    2          7             0       -0.124297   -0.182310    1.248649
    3          1             0       -0.626009    1.543686    0.049396
    4          1             0        0.587777    0.136474    2.053960
    5          8             0       -0.031401   -0.353757   -1.366122
    6          1             0        0.353698   -0.942385    1.009582
 ---------------------------------------------------------------------

 Entering Gaussian System  

                          Input orientation:   
 ---------------------------------------------------------------------
 Center     Atomic     Atomic              Coordinates (Angstroms)
 Number     Number      Type              X           Y           Z 
 ---------------------------------------------------------------------
    1          6             0        0.156961    0.610004    0.117877
    2          7             0       -0.119332   -0.177919    1.244029
    3          1             0       -0.628351    1.568769    0.062727
    4          1             0        0.578355    0.150219    2.011933
    5          8             0       -0.030140   -0.351326   -1.374348
    6          1             0        0.319250   -0.938752    1.048678
 ---------------------------------------------------------------------

 Entering Gaussian System  

                          Input orientation:   
 ---------------------------------------------------------------------
 Center     Atomic     Atomic              Coordinates (Angstroms)
 Number     Number      Type              X           Y           Z 
 ---------------------------------------------------------------------
    1          6             0        0.151616    0.597606    0.131852
    2          7             0       -0.113818   -0.171954    1.239668
    3          1             0       -0.621710    1.585556    0.068323
    4          1             0        0.565792    0.167365    1.972550
    5          8             0       -0.028520   -0.347773   -1.381392
    6          1             0        0.286445   -0.964265    1.088341
 ---------------------------------------------------------------------

 Entering Gaussian System  

                          Input orientation:   
 ---------------------------------------------------------------------
 Center     Atomic     Atomic              Coordinates (Angstroms)
 Number     Number      Type              X           Y           Z 
 ---------------------------------------------------------------------
    1          6             0        0.142724    0.586272    0.143450
    2          7             0       -0.107864   -0.165012    1.235406
    3          1             0       -0.596309    1.585820    0.065914
    4          1             0        0.551156    0.195265    1.948045
    5          8             0       -0.026084   -0.343395   -1.386992
    6          1             0        0.260113   -1.023348    1.125183
 ---------------------------------------------------------------------

 Entering Gaussian System  

                          Input orientation:   
 ---------------------------------------------------------------------
 Center     Atomic     Atomic              Coordinates (Angstroms)
 Number     Number      Type              X           Y           Z 
 ---------------------------------------------------------------------
    1          6             0        0.130028    0.577154    0.151247
    2          7             0       -0.100953   -0.156950    1.232676
    3          1             0       -0.546748    1.560508    0.059277
    4          1             0        0.525925    0.229599    1.927197
    5          8             0       -0.023088   -0.338295   -1.390685
    6          1             0        0.243350   -1.116730    1.156316
 ---------------------------------------------------------------------

 Entering Gaussian System  

                          Input orientation:   
 ---------------------------------------------------------------------
 Center     Atomic     Atomic              Coordinates (Angstroms)
 Number     Number      Type              X           Y           Z 
 ---------------------------------------------------------------------
    1          6             0        0.113661    0.571671    0.157311
    2          7             0       -0.092110   -0.149160    1.232059
    3          1             0       -0.475870    1.514218    0.053817
    4          1             0        0.485479    0.267284    1.904690
    5          8             0       -0.019617   -0.333760   -1.394699
    6          1             0        0.229759   -1.223047    1.184323
 ---------------------------------------------------------------------

 Entering Gaussian System  

                          Input orientation:   
 ---------------------------------------------------------------------
 Center     Atomic     Atomic              Coordinates (Angstroms)
 Number     Number      Type              X           Y           Z 
 ---------------------------------------------------------------------
    1          6             0        0.094984    0.572255    0.168408
    2          7             0       -0.081146   -0.144989    1.231816
    3          1             0       -0.401361    1.466520    0.058509
    4          1             0        0.440613    0.307736    1.904383
    5          8             0       -0.015443   -0.333358   -1.404915
    6          1             0        0.203836   -1.287134    1.213245
 ---------------------------------------------------------------------

 Entering Gaussian System  

                          Input orientation:   
 ---------------------------------------------------------------------
 Center     Atomic     Atomic              Coordinates (Angstroms)
 Number     Number      Type              X           Y           Z 
 ---------------------------------------------------------------------
    1          6             0        0.075027    0.574980    0.181569
    2          7             0       -0.069219   -0.144153    1.231899
    3          1             0       -0.329630    1.435979    0.067449
    4          1             0        0.400592    0.348393    1.932096
    5          8             0       -0.010567   -0.335428   -1.418854
    6          1             0        0.166572   -1.308487    1.239877
 ---------------------------------------------------------------------

 Entering Gaussian System  

                          Input orientation:   
 ---------------------------------------------------------------------
 Center     Atomic     Atomic              Coordinates (Angstroms)
 Number     Number      Type              X           Y           Z 
 ---------------------------------------------------------------------
    1          6             0        0.056493    0.577517    0.195338
    2          7             0       -0.057436   -0.146273    1.233497
    3          1             0       -0.272122    1.447244    0.075558
    4          1             0        0.369204    0.381794    1.981460
    5          8             0       -0.005640   -0.339408   -1.435638
    6          1             0        0.119147   -1.290751    1.262511
 ---------------------------------------------------------------------

 Entering Gaussian System  

                          Input orientation:   
 ---------------------------------------------------------------------
 Center     Atomic     Atomic              Coordinates (Angstroms)
 Number     Number      Type              X           Y           Z 
 ---------------------------------------------------------------------
    1          6             0        0.042572    0.578677    0.209514
    2          7             0       -0.046067   -0.151063    1.238491
    3          1             0       -0.237422    1.525504    0.079223
    4          1             0        0.337426    0.402524    2.040124
    5          8             0       -0.001896   -0.345363   -1.455790
    6          1             0        0.064464   -1.242470    1.281708
 ---------------------------------------------------------------------

 Entering Gaussian System  

                          Input orientation:   
 ---------------------------------------------------------------------
 Center     Atomic     Atomic              Coordinates (Angstroms)
 Number     Number      Type              X           Y           Z 
 ---------------------------------------------------------------------
    1          6             0        0.031860    0.579742    0.222681
    2          7             0       -0.034742   -0.156780    1.248211
    3          1             0       -0.214607    1.644190    0.082855
    4          1             0        0.298815    0.404101    2.094961
    5          8             0        0.000754   -0.352885   -1.478859
    6          1             0        0.008231   -1.176568    1.297415
 ---------------------------------------------------------------------

 Entering Gaussian System  

                          Input orientation:   
 ---------------------------------------------------------------------
 Center     Atomic     Atomic              Coordinates (Angstroms)
 Number     Number      Type              X           Y           Z 
 ---------------------------------------------------------------------
    1          6             0        0.026208    0.581600    0.228897
    2          7             0       -0.028507   -0.159897    1.255459
    3          1             0       -0.200637    1.705093    0.088497
    4          1             0        0.274231    0.395698    2.119878
    5          8             0        0.001994   -0.357563   -1.492242
    6          1             0       -0.020280   -1.133635    1.304484
 ---------------------------------------------------------------------

 Entering Gaussian System  

                          Input orientation:   
 ---------------------------------------------------------------------
 Center     Atomic     Atomic              Coordinates (Angstroms)
 Number     Number      Type              X           Y           Z 
 ---------------------------------------------------------------------
    1          6             0        0.026208    0.581600    0.228897
    2          7             0       -0.028507   -0.159897    1.255459
    3          1             0       -0.200637    1.705093    0.088497
    4          1             0        0.274231    0.395698    2.119878
    5          8             0        0.001994   -0.357563   -1.492242
    6          1             0       -0.020280   -1.133635    1.304484
 ---------------------------------------------------------------------

 Entering Gaussian System  

                          Input orientation:   
 ---------------------------------------------------------------------
 Center     Atomic     Atomic              Coordinates (Angstroms)
 Number     Number      Type              X           Y           Z 
 ---------------------------------------------------------------------
    1          6             0        0.026208    0.581600    0.228897
    2          7             0       -0.028507   -0.159897    1.255459
    3          1             0       -0.200637    1.705093    0.088497
    4          1             0        0.274231    0.395698    2.119878
    5          8             0        0.001994   -0.357563   -1.492242
    6          1             0       -0.020280   -1.133635    1.304484
 ---------------------------------------------------------------------

 Entering Gaussian System  

                          Input orientation:   
 ---------------------------------------------------------------------
 Center     Atomic     Atomic              Coordinates (Angstroms)
 Number     Number      Type              X           Y           Z 
 ---------------------------------------------------------------------
    1          6             0        0.026208    0.581600    0.228897
    2          7             0       -0.028507   -0.159897    1.255459
    3          1             0       -0.200637    1.705093    0.088497
    4          1             0        0.274231    0.395698    2.119878
    5          8             0        0.001994   -0.357563   -1.492242
    6          1             0       -0.020280   -1.133635    1.304484
 ---------------------------------------------------------------------

 Entering Gaussian System  

                          Input orientation:   
 ---------------------------------------------------------------------
 Center     Atomic     Atomic              Coordinates (Angstroms)
 Number     Number      Type              X           Y           Z 
 ---------------------------------------------------------------------
    1          6             0        0.026208    0.581600    0.228897
    2          7             0       -0.028507   -0.159897    1.255459
    3          1             0       -0.200637    1.705093    0.088497
    4          1             0        0.274231    0.395698    2.119878
    5          8             0        0.001994   -0.357563   -1.492242
    6          1             0       -0.020280   -1.133635    1.304484
 ---------------------------------------------------------------------

 Entering Gaussian System  

                          Input orientation:   
 ---------------------------------------------------------------------
 Center     Atomic     Atomic              Coordinates (Angstroms)
 Number     Number      Type              X           Y           Z 
 ---------------------------------------------------------------------
    1          6             0        0.026208    0.581600    0.228897
    2          7             0       -0.028507   -0.159897    1.255459
    3          1             0       -0.200637    1.705093    0.088497
    4          1             0        0.274231    0.395698    2.119878
    5          8             0        0.001994   -0.357563   -1.492242
    6          1             0       -0.020280   -1.133635    1.304484
 ---------------------------------------------------------------------

 Entering Gaussian System  

                          Input orientation:   
 ---------------------------------------------------------------------
 Center     Atomic     Atomic              Coordinates (Angstroms)
 Number     Number      Type              X           Y           Z 
 ---------------------------------------------------------------------
    1          6             0        0.026208    0.581600    0.228897
    2          7             0       -0.028507   -0.159897    1.255459
    3          1             0       -0.200637    1.705093    0.088497
    4          1             0        0.274231    0.395698    2.119878
    5          8             0        0.001994   -0.357563   -1.492242
    6          1             0       -0.020280   -1.133635    1.304484
 ---------------------------------------------------------------------

 Entering Gaussian System  

                          Input orientation:   
 ---------------------------------------------------------------------
 Center     Atomic     Atomic              Coordinates (Angstroms)
 Number     Number      Type              X           Y           Z 
 ---------------------------------------------------------------------
    1          6             0        0.026208    0.581600    0.228897
    2          7             0       -0.028507   -0.159897    1.255459
    3          1             0       -0.200637    1.705093    0.088497
    4          1             0        0.274231    0.395698    2.119878
    5          8             0        0.001994   -0.357563   -1.492242
    6          1             0       -0.020280   -1.133635    1.304484
 ---------------------------------------------------------------------

 Entering Gaussian System  

                          Input orientation:   
 ---------------------------------------------------------------------
 Center     Atomic     Atomic              Coordinates (Angstroms)
 Number     Number      Type              X           Y           Z 
 ---------------------------------------------------------------------
    1          6             0        0.026208    0.581600    0.228897
    2          7             0       -0.028507   -0.159897    1.255459
    3          1             0       -0.200637    1.705093    0.088497
    4          1             0        0.274231    0.395698    2.119878
    5          8             0        0.001994   -0.357563   -1.492242
    6          1             0       -0.020280   -1.133635    1.304484
 ---------------------------------------------------------------------

 Entering Gaussian System  

                          Input orientation:   
 ---------------------------------------------------------------------
 Center     Atomic     Atomic              Coordinates (Angstroms)
 Number     Number      Type              X           Y           Z 
 ---------------------------------------------------------------------
    1          6             0        0.026208    0.581600    0.228897
    2          7             0       -0.028507   -0.159897    1.255459
    3          1             0       -0.200637    1.705093    0.088497
    4          1             0        0.274231    0.395698    2.119878
    5          8             0        0.001994   -0.357563   -1.492242
    6          1             0       -0.020280   -1.133635    1.304484
 ---------------------------------------------------------------------

 Entering Gaussian System  

                          Input orientation:   
 ---------------------------------------------------------------------
 Center     Atomic     Atomic              Coordinates (Angstroms)
 Number     Number      Type              X           Y           Z 
 ---------------------------------------------------------------------
    1          6             0        0.026208    0.581600    0.228897
    2          7             0       -0.028507   -0.159897    1.255459
    3          1             0       -0.200637    1.705093    0.088497
    4          1             0        0.274231    0.395698    2.119878
    5          8             0        0.001994   -0.357563   -1.492242
    6          1             0       -0.020280   -1.133635    1.304484
 ---------------------------------------------------------------------

 Entering Gaussian System  

                          Input orientation:   
 ---------------------------------------------------------------------
 Center     Atomic     Atomic              Coordinates (Angstroms)
 Number     Number      Type              X           Y           Z 
 ---------------------------------------------------------------------
    1          6             0        0.026208    0.581600    0.228897
    2          7             0       -0.028507   -0.159897    1.255459
    3          1             0       -0.200637    1.705093    0.088497
    4          1             0        0.274231    0.395698    2.119878
    5          8             0        0.001994   -0.357563   -1.492242
    6          1             0       -0.020280   -1.133635    1.304484
 ---------------------------------------------------------------------

 Entering Gaussian System  

                          Input orientation:   
 ---------------------------------------------------------------------
 Center     Atomic     Atomic              Coordinates (Angstroms)
 Number     Number      Type              X           Y           Z 
 ---------------------------------------------------------------------
    1          6             0        0.026208    0.581600    0.228897
    2          7             0       -0.028507   -0.159897    1.255459
    3          1             0       -0.200637    1.705093    0.088497
    4          1             0        0.274231    0.395698    2.119878
    5          8             0        0.001994   -0.357563   -1.492242
    6          1             0       -0.020280   -1.133635    1.304484
 ---------------------------------------------------------------------

 Entering Gaussian System  

                          Input orientation:   
 ---------------------------------------------------------------------
 Center     Atomic     Atomic              Coordinates (Angstroms)
 Number     Number      Type              X           Y           Z 
 ---------------------------------------------------------------------
    1          6             0        0.026208    0.581600    0.228897
    2          7             0       -0.028507   -0.159897    1.255459
    3          1             0       -0.200637    1.705093    0.088497
    4          1             0        0.274231    0.395698    2.119878
    5          8             0        0.001994   -0.357563   -1.492242
    6          1             0       -0.020280   -1.133635    1.304484
 ---------------------------------------------------------------------

 Entering Gaussian System  

                          Input orientation:   
 ---------------------------------------------------------------------
 Center     Atomic     Atomic              Coordinates (Angstroms)
 Number     Number      Type              X           Y           Z 
 ---------------------------------------------------------------------
    1          6             0        0.026208    0.581600    0.228897
    2          7             0       -0.028507   -0.159897    1.255459
    3          1             0       -0.200637    1.705093    0.088497
    4          1             0        0.274231    0.395698    2.119878
    5          8             0        0.001994   -0.357563   -1.492242
    6          1             0       -0.020280   -1.133635    1.304484
 ---------------------------------------------------------------------

 Entering Gaussian System  

                          Input orientation:   
 ---------------------------------------------------------------------
 Center     Atomic     Atomic              Coordinates (Angstroms)
 Number     Number      Type              X           Y           Z 
 ---------------------------------------------------------------------
    1          6             0        0.026208    0.581600    0.228897
    2          7             0       -0.028507   -0.159897    1.255459
    3          1             0       -0.200637    1.705093    0.088497
    4          1             0        0.274231    0.395698    2.119878
    5          8             0        0.001994   -0.357563   -1.492242
    6          1             0       -0.020280   -1.133635    1.304484
 ---------------------------------------------------------------------

 Entering Gaussian System  

                          Input orientation:   
 ---------------------------------------------------------------------
 Center     Atomic     Atomic              Coordinates (Angstroms)
 Number     Number      Type              X           Y           Z 
 ---------------------------------------------------------------------
    1          6             0        0.026208    0.581600    0.228897
    2          7             0       -0.028507   -0.159897    1.255459
    3          1             0       -0.200637    1.705093    0.088497
    4          1             0        0.274231    0.395698    2.119878
    5          8             0        0.001994   -0.357563   -1.492242
    6          1             0       -0.020280   -1.133635    1.304484
 ---------------------------------------------------------------------

 Entering Gaussian System  

                          Input orientation:   
 ---------------------------------------------------------------------
 Center     Atomic     Atomic              Coordinates (Angstroms)
 Number     Number      Type              X           Y           Z 
 ---------------------------------------------------------------------
    1          6             0        0.026208    0.581600    0.228897
    2          7             0       -0.028507   -0.159897    1.255459
    3          1             0       -0.200637    1.705093    0.088497
    4          1             0        0.274231    0.395698    2.119878
    5          8             0        0.001994   -0.357563   -1.492242
    6          1             0       -0.020280   -1.133635    1.304484
 ---------------------------------------------------------------------

 Entering Gaussian System  

                          Input orientation:   
 ---------------------------------------------------------------------
 Center     Atomic     Atomic              Coordinates (Angstroms)
 Number     Number      Type              X           Y           Z 
 ---------------------------------------------------------------------
    1          6             0        0.026208    0.581600    0.228897
    2          7             0       -0.028507   -0.159897    1.255459
    3          1             0       -0.200637    1.705093    0.088497
    4          1             0        0.274231    0.395698    2.119878
    5          8             0        0.001994   -0.357563   -1.492242
    6          1             0       -0.020280   -1.133635    1.304484
 ---------------------------------------------------------------------

 Entering Gaussian System  

                          Input orientation:   
 ---------------------------------------------------------------------
 Center     Atomic     Atomic              Coordinates (Angstroms)
 Number     Number      Type              X           Y           Z 
 ---------------------------------------------------------------------
    1          6             0        0.026208    0.581600    0.228897
    2          7             0       -0.028507   -0.159897    1.255459
    3          1             0       -0.200637    1.705093    0.088497
    4          1             0        0.274231    0.395698    2.119878
    5          8             0        0.001994   -0.357563   -1.492242
    6          1             0       -0.020280   -1.133635    1.304484
 ---------------------------------------------------------------------

 Entering Gaussian System  

                          Input orientation:   
 ---------------------------------------------------------------------
 Center     Atomic     Atomic              Coordinates (Angstroms)
 Number     Number      Type              X           Y           Z 
 ---------------------------------------------------------------------
    1          6             0        0.026208    0.581600    0.228897
    2          7             0       -0.028507   -0.159897    1.255459
    3          1             0       -0.200637    1.705093    0.088497
    4          1             0        0.274231    0.395698    2.119878
    5          8             0        0.001994   -0.357563   -1.492242
    6          1             0       -0.020280   -1.133635    1.304484
 ---------------------------------------------------------------------

 Entering Gaussian System  

                          Input orientation:   
 ---------------------------------------------------------------------
 Center     Atomic     Atomic              Coordinates (Angstroms)
 Number     Number      Type              X           Y           Z 
 ---------------------------------------------------------------------
    1          6             0        0.026208    0.581600    0.228897
    2          7             0       -0.028507   -0.159897    1.255459
    3          1             0       -0.200637    1.705093    0.088497
    4          1             0        0.274231    0.395698    2.119878
    5          8             0        0.001994   -0.357563   -1.492242
    6          1             0       -0.020280   -1.133635    1.304484
 ---------------------------------------------------------------------

 Entering Gaussian System  

                          Input orientation:   
 ---------------------------------------------------------------------
 Center     Atomic     Atomic              Coordinates (Angstroms)
 Number     Number      Type              X           Y           Z 
 ---------------------------------------------------------------------
    1          6             0        0.026208    0.581600    0.228897
    2          7             0       -0.028507   -0.159897    1.255459
    3          1             0       -0.200637    1.705093    0.088497
    4          1             0        0.274231    0.395698    2.119878
    5          8             0        0.001994   -0.357563   -1.492242
    6          1             0       -0.020280   -1.133635    1.304484
 ---------------------------------------------------------------------

 Entering Gaussian System  

                          Input orientation:   
 ---------------------------------------------------------------------
 Center     Atomic     Atomic              Coordinates (Angstroms)
 Number     Number      Type              X           Y           Z 
 ---------------------------------------------------------------------
    1          6             0        0.026208    0.581600    0.228897
    2          7             0       -0.028507   -0.159897    1.255459
    3          1             0       -0.200637    1.705093    0.088497
    4          1             0        0.274231    0.395698    2.119878
    5          8             0        0.001994   -0.357563   -1.492242
    6          1             0       -0.020280   -1.133635    1.304484
 ---------------------------------------------------------------------

 Entering Gaussian System  

                          Input orientation:   
 ---------------------------------------------------------------------
 Center     Atomic     Atomic              Coordinates (Angstroms)
 Number     Number      Type              X           Y           Z 
 ---------------------------------------------------------------------
    1          6             0        0.026208    0.581600    0.228897
    2          7             0       -0.028507   -0.159897    1.255459
    3          1             0       -0.200637    1.705093    0.088497
    4          1             0        0.274231    0.395698    2.119878
    5          8             0        0.001994   -0.357563   -1.492242
    6          1             0       -0.020280   -1.133635    1.304484
 ---------------------------------------------------------------------

 Entering Gaussian System  

                          Input orientation:   
 ---------------------------------------------------------------------
 Center     Atomic     Atomic              Coordinates (Angstroms)
 Number     Number      Type              X           Y           Z 
 ---------------------------------------------------------------------
    1          6             0        0.026208    0.581600    0.228897
    2          7             0       -0.028507   -0.159897    1.255459
    3          1             0       -0.200637    1.705093    0.088497
    4          1             0        0.274231    0.395698    2.119878
    5          8             0        0.001994   -0.357563   -1.492242
    6          1             0       -0.020280   -1.133635    1.304484
 ---------------------------------------------------------------------

 Entering Gaussian System  

                          Input orientation:   
 ---------------------------------------------------------------------
 Center     Atomic     Atomic              Coordinates (Angstroms)
 Number     Number      Type              X           Y           Z 
 ---------------------------------------------------------------------
    1          6             0        0.026208    0.581600    0.228897
    2          7             0       -0.028507   -0.159897    1.255459
    3          1             0       -0.200637    1.705093    0.088497
    4          1             0        0.274231    0.395698    2.119878
    5          8             0        0.001994   -0.357563   -1.492242
    6          1             0       -0.020280   -1.133635    1.304484
 ---------------------------------------------------------------------

 Entering Gaussian System  

                          Input orientation:   
 ---------------------------------------------------------------------
 Center     Atomic     Atomic              Coordinates (Angstroms)
 Number     Number      Type              X           Y           Z 
 ---------------------------------------------------------------------
    1          6             0        0.026208    0.581600    0.228897
    2          7             0       -0.028507   -0.159897    1.255459
    3          1             0       -0.200637    1.705093    0.088497
    4          1             0        0.274231    0.395698    2.119878
    5          8             0        0.001994   -0.357563   -1.492242
    6          1             0       -0.020280   -1.133635    1.304484
 ---------------------------------------------------------------------

 Entering Gaussian System  

                          Input orientation:   
 ---------------------------------------------------------------------
 Center     Atomic     Atomic              Coordinates (Angstroms)
 Number     Number      Type              X           Y           Z 
 ---------------------------------------------------------------------
    1          6             0        0.026208    0.581600    0.228897
    2          7             0       -0.028507   -0.159897    1.255459
    3          1             0       -0.200637    1.705093    0.088497
    4          1             0        0.274231    0.395698    2.119878
    5          8             0        0.001994   -0.357563   -1.492242
    6          1             0       -0.020280   -1.133635    1.304484
 ---------------------------------------------------------------------

 Entering Gaussian System  

                          Input orientation:   
 ---------------------------------------------------------------------
 Center     Atomic     Atomic              Coordinates (Angstroms)
 Number     Number      Type              X           Y           Z 
 ---------------------------------------------------------------------
    1          6             0        0.026208    0.581600    0.228897
    2          7             0       -0.028507   -0.159897    1.255459
    3          1             0       -0.200637    1.705093    0.088497
    4          1             0        0.274231    0.395698    2.119878
    5          8             0        0.001994   -0.357563   -1.492242
    6          1             0       -0.020280   -1.133635    1.304484
 ---------------------------------------------------------------------

 Entering Gaussian System  

                          Input orientation:   
 ---------------------------------------------------------------------
 Center     Atomic     Atomic              Coordinates (Angstroms)
 Number     Number      Type              X           Y           Z 
 ---------------------------------------------------------------------
    1          6             0        0.026208    0.581600    0.228897
    2          7             0       -0.028507   -0.159897    1.255459
    3          1             0       -0.200637    1.705093    0.088497
    4          1             0        0.274231    0.395698    2.119878
    5          8             0        0.001994   -0.357563   -1.492242
    6          1             0       -0.020280   -1.133635    1.304484
 ---------------------------------------------------------------------

 Entering Gaussian System  

                          Input orientation:   
 ---------------------------------------------------------------------
 Center     Atomic     Atomic              Coordinates (Angstroms)
 Number     Number      Type              X           Y           Z 
 ---------------------------------------------------------------------
    1          6             0        0.026208    0.581600    0.228897
    2          7             0       -0.028507   -0.159897    1.255459
    3          1             0       -0.200637    1.705093    0.088497
    4          1             0        0.274231    0.395698    2.119878
    5          8             0        0.001994   -0.357563   -1.492242
    6          1             0       -0.020280   -1.133635    1.304484
 ---------------------------------------------------------------------

 Entering Gaussian System  

                          Input orientation:   
 ---------------------------------------------------------------------
 Center     Atomic     Atomic              Coordinates (Angstroms)
 Number     Number      Type              X           Y           Z 
 ---------------------------------------------------------------------
    1          6             0        0.026208    0.581600    0.228897
    2          7             0       -0.028507   -0.159897    1.255459
    3          1             0       -0.200637    1.705093    0.088497
    4          1             0        0.274231    0.395698    2.119878
    5          8             0        0.001994   -0.357563   -1.492242
    6          1             0       -0.020280   -1.133635    1.304484
 ---------------------------------------------------------------------

 Entering Gaussian System  

                          Input orientation:   
 ---------------------------------------------------------------------
 Center     Atomic     Atomic              Coordinates (Angstroms)
 Number     Number      Type              X           Y           Z 
 ---------------------------------------------------------------------
    1          6             0        0.026208    0.581600    0.228897
    2          7             0       -0.028507   -0.159897    1.255459
    3          1             0       -0.200637    1.705093    0.088497
    4          1             0        0.274231    0.395698    2.119878
    5          8             0        0.001994   -0.357563   -1.492242
    6          1             0       -0.020280   -1.133635    1.304484
 ---------------------------------------------------------------------

 Entering Gaussian System  

                          Input orientation:   
 ---------------------------------------------------------------------
 Center     Atomic     Atomic              Coordinates (Angstroms)
 Number     Number      Type              X           Y           Z 
 ---------------------------------------------------------------------
    1          6             0        0.026208    0.581600    0.228897
    2          7             0       -0.028507   -0.159897    1.255459
    3          1             0       -0.200637    1.705093    0.088497
    4          1             0        0.274231    0.395698    2.119878
    5          8             0        0.001994   -0.357563   -1.492242
    6          1             0       -0.020280   -1.133635    1.304484
 ---------------------------------------------------------------------

 Entering Gaussian System  

                          Input orientation:   
 ---------------------------------------------------------------------
 Center     Atomic     Atomic              Coordinates (Angstroms)
 Number     Number      Type              X           Y           Z 
 ---------------------------------------------------------------------
    1          6             0        0.026208    0.581600    0.228897
    2          7             0       -0.028507   -0.159897    1.255459
    3          1             0       -0.200637    1.705093    0.088497
    4          1             0        0.274231    0.395698    2.119878
    5          8             0        0.001994   -0.357563   -1.492242
    6          1             0       -0.020280   -1.133635    1.304484
 ---------------------------------------------------------------------

 Entering Gaussian System  

                          Input orientation:   
 ---------------------------------------------------------------------
 Center     Atomic     Atomic              Coordinates (Angstroms)
 Number     Number      Type              X           Y           Z 
 ---------------------------------------------------------------------
    1          6             0        0.026208    0.581600    0.228897
    2          7             0       -0.028507   -0.159897    1.255459
    3          1             0       -0.200637    1.705093    0.088497
    4          1             0        0.274231    0.395698    2.119878
    5          8             0        0.001994   -0.357563   -1.492242
    6          1             0       -0.020280   -1.133635    1.304484
 ---------------------------------------------------------------------

 Entering Gaussian System  

                          Input orientation:   
 ---------------------------------------------------------------------
 Center     Atomic     Atomic              Coordinates (Angstroms)
 Number     Number      Type              X           Y           Z 
 ---------------------------------------------------------------------
    1          6             0        0.026208    0.581600    0.228897
    2          7             0       -0.028507   -0.159897    1.255459
    3          1             0       -0.200637    1.705093    0.088497
    4          1             0        0.274231    0.395698    2.119878
    5          8             0        0.001994   -0.357563   -1.492242
    6          1             0       -0.020280   -1.133635    1.304484
 ---------------------------------------------------------------------

 Entering Gaussian System  

                          Input orientation:   
 ---------------------------------------------------------------------
 Center     Atomic     Atomic              Coordinates (Angstroms)
 Number     Number      Type              X           Y           Z 
 ---------------------------------------------------------------------
    1          6             0        0.026208    0.581600    0.228897
    2          7             0       -0.028507   -0.159897    1.255459
    3          1             0       -0.200637    1.705093    0.088497
    4          1             0        0.274231    0.395698    2.119878
    5          8             0        0.001994   -0.357563   -1.492242
    6          1             0       -0.020280   -1.133635    1.304484
 ---------------------------------------------------------------------

 Entering Gaussian System  

                          Input orientation:   
 ---------------------------------------------------------------------
 Center     Atomic     Atomic              Coordinates (Angstroms)
 Number     Number      Type              X           Y           Z 
 ---------------------------------------------------------------------
    1          6             0        0.026208    0.581600    0.228897
    2          7             0       -0.028507   -0.159897    1.255459
    3          1             0       -0.200637    1.705093    0.088497
    4          1             0        0.274231    0.395698    2.119878
    5          8             0        0.001994   -0.357563   -1.492242
    6          1             0       -0.020280   -1.133635    1.304484
 ---------------------------------------------------------------------

 Entering Gaussian System  

                          Input orientation:   
 ---------------------------------------------------------------------
 Center     Atomic     Atomic              Coordinates (Angstroms)
 Number     Number      Type              X           Y           Z 
 ---------------------------------------------------------------------
    1          6             0        0.026208    0.581600    0.228897
    2          7             0       -0.028507   -0.159897    1.255459
    3          1             0       -0.200637    1.705093    0.088497
    4          1             0        0.274231    0.395698    2.119878
    5          8             0        0.001994   -0.357563   -1.492242
    6          1             0       -0.020280   -1.133635    1.304484
 ---------------------------------------------------------------------

 Entering Gaussian System  

                          Input orientation:   
 ---------------------------------------------------------------------
 Center     Atomic     Atomic              Coordinates (Angstroms)
 Number     Number      Type              X           Y           Z 
 ---------------------------------------------------------------------
    1          6             0        0.026208    0.581600    0.228897
    2          7             0       -0.028507   -0.159897    1.255459
    3          1             0       -0.200637    1.705093    0.088497
    4          1             0        0.274231    0.395698    2.119878
    5          8             0        0.001994   -0.357563   -1.492242
    6          1             0       -0.020280   -1.133635    1.304484
 ---------------------------------------------------------------------

 Entering Gaussian System  

                          Input orientation:   
 ---------------------------------------------------------------------
 Center     Atomic     Atomic              Coordinates (Angstroms)
 Number     Number      Type              X           Y           Z 
 ---------------------------------------------------------------------
    1          6             0        0.026208    0.581600    0.228897
    2          7             0       -0.028507   -0.159897    1.255459
    3          1             0       -0.200637    1.705093    0.088497
    4          1             0        0.274231    0.395698    2.119878
    5          8             0        0.001994   -0.357563   -1.492242
    6          1             0       -0.020280   -1.133635    1.304484
 ---------------------------------------------------------------------

 Entering Gaussian System  

                          Input orientation:   
 ---------------------------------------------------------------------
 Center     Atomic     Atomic              Coordinates (Angstroms)
 Number     Number      Type              X           Y           Z 
 ---------------------------------------------------------------------
    1          6             0        0.026208    0.581600    0.228897
    2          7             0       -0.028507   -0.159897    1.255459
    3          1             0       -0.200637    1.705093    0.088497
    4          1             0        0.274231    0.395698    2.119878
    5          8             0        0.001994   -0.357563   -1.492242
    6          1             0       -0.020280   -1.133635    1.304484
 ---------------------------------------------------------------------

 Entering Gaussian System  

                          Input orientation:   
 ---------------------------------------------------------------------
 Center     Atomic     Atomic              Coordinates (Angstroms)
 Number     Number      Type              X           Y           Z 
 ---------------------------------------------------------------------
    1          6             0        0.026208    0.581600    0.228897
    2          7             0       -0.028507   -0.159897    1.255459
    3          1             0       -0.200637    1.705093    0.088497
    4          1             0        0.274231    0.395698    2.119878
    5          8             0        0.001994   -0.357563   -1.492242
    6          1             0       -0.020280   -1.133635    1.304484
 ---------------------------------------------------------------------

 Entering Gaussian System  

                          Input orientation:   
 ---------------------------------------------------------------------
 Center     Atomic     Atomic              Coordinates (Angstroms)
 Number     Number      Type              X           Y           Z 
 ---------------------------------------------------------------------
    1          6             0        0.026208    0.581600    0.228897
    2          7             0       -0.028507   -0.159897    1.255459
    3          1             0       -0.200637    1.705093    0.088497
    4          1             0        0.274231    0.395698    2.119878
    5          8             0        0.001994   -0.357563   -1.492242
    6          1             0       -0.020280   -1.133635    1.304484
 ---------------------------------------------------------------------

 Entering Gaussian System  

                          Input orientation:   
 ---------------------------------------------------------------------
 Center     Atomic     Atomic              Coordinates (Angstroms)
 Number     Number      Type              X           Y           Z 
 ---------------------------------------------------------------------
    1          6             0        0.026208    0.581600    0.228897
    2          7             0       -0.028507   -0.159897    1.255459
    3          1             0       -0.200637    1.705093    0.088497
    4          1             0        0.274231    0.395698    2.119878
    5          8             0        0.001994   -0.357563   -1.492242
    6          1             0       -0.020280   -1.133635    1.304484
 ---------------------------------------------------------------------

 Entering Gaussian System  

                          Input orientation:   
 ---------------------------------------------------------------------
 Center     Atomic     Atomic              Coordinates (Angstroms)
 Number     Number      Type              X           Y           Z 
 ---------------------------------------------------------------------
    1          6             0        0.026208    0.581600    0.228897
    2          7             0       -0.028507   -0.159897    1.255459
    3          1             0       -0.200637    1.705093    0.088497
    4          1             0        0.274231    0.395698    2.119878
    5          8             0        0.001994   -0.357563   -1.492242
    6          1             0       -0.020280   -1.133635    1.304484
 ---------------------------------------------------------------------

 Entering Gaussian System  

                          Input orientation:   
 ---------------------------------------------------------------------
 Center     Atomic     Atomic              Coordinates (Angstroms)
 Number     Number      Type              X           Y           Z 
 ---------------------------------------------------------------------
    1          6             0        0.026208    0.581600    0.228897
    2          7             0       -0.028507   -0.159897    1.255459
    3          1             0       -0.200637    1.705093    0.088497
    4          1             0        0.274231    0.395698    2.119878
    5          8             0        0.001994   -0.357563   -1.492242
    6          1             0       -0.020280   -1.133635    1.304484
 ---------------------------------------------------------------------

 Entering Gaussian System  

                          Input orientation:   
 ---------------------------------------------------------------------
 Center     Atomic     Atomic              Coordinates (Angstroms)
 Number     Number      Type              X           Y           Z 
 ---------------------------------------------------------------------
    1          6             0        0.026208    0.581600    0.228897
    2          7             0       -0.028507   -0.159897    1.255459
    3          1             0       -0.200637    1.705093    0.088497
    4          1             0        0.274231    0.395698    2.119878
    5          8             0        0.001994   -0.357563   -1.492242
    6          1             0       -0.020280   -1.133635    1.304484
 ---------------------------------------------------------------------

 Entering Gaussian System  

                          Input orientation:   
 ---------------------------------------------------------------------
 Center     Atomic     Atomic              Coordinates (Angstroms)
 Number     Number      Type              X           Y           Z 
 ---------------------------------------------------------------------
    1          6             0        0.026208    0.581600    0.228897
    2          7             0       -0.028507   -0.159897    1.255459
    3          1             0       -0.200637    1.705093    0.088497
    4          1             0        0.274231    0.395698    2.119878
    5          8             0        0.001994   -0.357563   -1.492242
    6          1             0       -0.020280   -1.133635    1.304484
 ---------------------------------------------------------------------

 Entering Gaussian System  

                          Input orientation:   
 ---------------------------------------------------------------------
 Center     Atomic     Atomic              Coordinates (Angstroms)
 Number     Number      Type              X           Y           Z 
 ---------------------------------------------------------------------
    1          6             0        0.026208    0.581600    0.228897
    2          7             0       -0.028507   -0.159897    1.255459
    3          1             0       -0.200637    1.705093    0.088497
    4          1             0        0.274231    0.395698    2.119878
    5          8             0        0.001994   -0.357563   -1.492242
    6          1             0       -0.020280   -1.133635    1.304484
 ---------------------------------------------------------------------

 Entering Gaussian System  

                          Input orientation:   
 ---------------------------------------------------------------------
 Center     Atomic     Atomic              Coordinates (Angstroms)
 Number     Number      Type              X           Y           Z 
 ---------------------------------------------------------------------
    1          6             0        0.026208    0.581600    0.228897
    2          7             0       -0.028507   -0.159897    1.255459
    3          1             0       -0.200637    1.705093    0.088497
    4          1             0        0.274231    0.395698    2.119878
    5          8             0        0.001994   -0.357563   -1.492242
    6          1             0       -0.020280   -1.133635    1.304484
 ---------------------------------------------------------------------

 Entering Gaussian System  

                          Input orientation:   
 ---------------------------------------------------------------------
 Center     Atomic     Atomic              Coordinates (Angstroms)
 Number     Number      Type              X           Y           Z 
 ---------------------------------------------------------------------
    1          6             0        0.026208    0.581600    0.228897
    2          7             0       -0.028507   -0.159897    1.255459
    3          1             0       -0.200637    1.705093    0.088497
    4          1             0        0.274231    0.395698    2.119878
    5          8             0        0.001994   -0.357563   -1.492242
    6          1             0       -0.020280   -1.133635    1.304484
 ---------------------------------------------------------------------

 Entering Gaussian System  

                          Input orientation:   
 ---------------------------------------------------------------------
 Center     Atomic     Atomic              Coordinates (Angstroms)
 Number     Number      Type              X           Y           Z 
 ---------------------------------------------------------------------
    1          6             0        0.026208    0.581600    0.228897
    2          7             0       -0.028507   -0.159897    1.255459
    3          1             0       -0.200637    1.705093    0.088497
    4          1             0        0.274231    0.395698    2.119878
    5          8             0        0.001994   -0.357563   -1.492242
    6          1             0       -0.020280   -1.133635    1.304484
 ---------------------------------------------------------------------

 Entering Gaussian System  

                          Input orientation:   
 ---------------------------------------------------------------------
 Center     Atomic     Atomic              Coordinates (Angstroms)
 Number     Number      Type              X           Y           Z 
 ---------------------------------------------------------------------
    1          6             0        0.026208    0.581600    0.228897
    2          7             0       -0.028507   -0.159897    1.255459
    3          1             0       -0.200637    1.705093    0.088497
    4          1             0        0.274231    0.395698    2.119878
    5          8             0        0.001994   -0.357563   -1.492242
    6          1             0       -0.020280   -1.133635    1.304484
 ---------------------------------------------------------------------

 Entering Gaussian System  

                          Input orientation:   
 ---------------------------------------------------------------------
 Center     Atomic     Atomic              Coordinates (Angstroms)
 Number     Number      Type              X           Y           Z 
 ---------------------------------------------------------------------
    1          6             0        0.026208    0.581600    0.228897
    2          7             0       -0.028507   -0.159897    1.255459
    3          1             0       -0.200637    1.705093    0.088497
    4          1             0        0.274231    0.395698    2.119878
    5          8             0        0.001994   -0.357563   -1.492242
    6          1             0       -0.020280   -1.133635    1.304484
 ---------------------------------------------------------------------

 Entering Gaussian System  

                          Input orientation:   
 ---------------------------------------------------------------------
 Center     Atomic     Atomic              Coordinates (Angstroms)
 Number     Number      Type              X           Y           Z 
 ---------------------------------------------------------------------
    1          6             0        0.026208    0.581600    0.228897
    2          7             0       -0.028507   -0.159897    1.255459
    3          1             0       -0.200637    1.705093    0.088497
    4          1             0        0.274231    0.395698    2.119878
    5          8             0        0.001994   -0.357563   -1.492242
    6          1             0       -0.020280   -1.133635    1.304484
 ---------------------------------------------------------------------
